36
Lattice="7.678093 0.0 0.0 3.839046 6.649423 0.0 0.0 0.0 7.234567" Properties=species:S:1:pos:R:3:momenta:R:3:forces:R:3 energy=-177.96864318847656 stress="0.004692422226071358 -0.002216834807768464 -0.0019396127900108695 -0.002216834807768464 8.322638313984498e-05 -0.003844061866402626 -0.0019396127900108695 -0.003844061866402626 -0.00721942400559783" free_energy=-177.96864318847656 pbc="T T T"
H        1.33501751       2.31515758       1.56308084      -0.06873805      -0.11435027       0.03656504      -0.06807719       0.08985661       0.40942955
H        5.28149162      -0.01624419       1.48887357       0.01671792       0.00310023       0.04682343      -0.25541103       0.08355923       0.09731437
H        5.19209386       4.37382265       1.34935838       0.09161519      -0.13684254      -0.02410157      -0.18204904       0.28913230       1.08306527
H        6.39333413       6.67251093       5.11611478      -0.03274241       0.03709895      -0.00063547       0.36246085       0.10086301       0.45715159
H       10.29493739       4.46207193       4.87928583       0.02310494       0.06112079      -0.05227441      -0.38164771       0.26657629      -0.01808047
H        6.32323823       2.16209616       5.21619451       0.07636763       0.03408503      -0.03552938      -0.06564982      -0.03154847      -0.14560634
H        4.28624576      -0.09328482       0.22191329      -0.02816392      -0.13080093      -0.04834347       0.36938196       0.09430693      -0.00540580
H        1.86306901       2.99142953       0.17644416      -0.05712388       0.01987114      -0.12520609      -0.00119619       0.13635004       0.06219858
H        5.66278199       3.42592310       0.23987903       0.03341640      -0.27899571       0.01922523       0.36159486      -0.30403531      -0.57242799
H        7.29278838       6.78657304       3.72836750       0.20934192      -0.02175001      -0.06889160      -0.50509506      -0.18780151       0.52356207
H        9.56571420       3.70543997       3.69813347       0.01151567      -0.06757411       0.05849610      -0.03176132      -0.09948748      -0.15495460
H        5.76501274       3.02685519       3.96071264       0.01562773       0.02953439      -0.04383255      -0.15473135       0.12710524      -0.13004312
H        6.03983449       5.77853380       7.10634434      -0.02138275      -0.07594408      -0.16470666       0.42104381       0.75691634      -0.12339975
H        6.02913933       7.38841331       7.30145562       0.04878341       0.18058916      -0.07893160      -0.13816875       0.20802131      -0.05115085
H        9.92072131       5.20825479       7.08156663       0.07039980      -0.09432779       0.03381403       0.12819619      -0.20530997      -0.39452684
H        7.49981581       2.17680440       7.16234700      -0.11121466       0.10242852      -0.17185930      -0.25869304      -0.17276330      -0.15235934
H        6.19748112       1.23235613       7.16706488      -0.15959492      -0.01381045      -0.07558539      -0.45497492      -0.51907635       0.14767945
H        1.63780673       1.49845035       3.58881393      -0.04667387       0.03976925      -0.11941416      -0.34602496       0.08236128      -0.04341810
H        9.35947358       7.46737741       3.55616701      -0.02833076       0.01912046       0.03699013       0.33107075       0.87198514       0.33203986
H        9.27157146       5.89530231       3.36527346      -0.00391687       0.07023409       0.04921065       0.11749672      -0.04759595       0.21365303
H        4.11835948       4.66488828       3.39733398       0.11621846       0.02601897       0.06113654      -0.56727010      -0.27989280       0.04478379
H        5.50866029       5.35878797       3.49636396      -0.01276383       0.00878360       0.11666596       0.43489298       0.34150189       0.20686877
H        0.14950293       2.16516237       3.50044495      -0.05842595      -0.03193071       0.05039145       0.16669698       0.03384005       0.16770056
H       11.26059059       4.33347047       6.92124854       0.11294939       0.10303762      -0.17042440       0.32661957       0.14318025       0.14233854
O        1.36839803       2.22729286       0.57530216      -0.14379349      -0.64589116      -0.29632997       0.06974252      -0.12688191      -0.69357586
O        5.26122870      -0.09785092       0.48820416       0.64020825       0.08860010       0.70022212      -0.08074318      -0.22111721      -0.49868801
O        5.24791125       4.31145891       0.38011047       0.36536236      -0.19995980       0.19925686      -0.17242198       0.15231726      -0.51200855
O        6.35716060       6.70729553       4.13106219       0.24577932       0.16356477       0.05767631       0.23372227       0.33698243      -1.12929118
O        6.14952433       2.15189898       4.21851792      -0.22875817      -0.02570825      -0.17286598       0.48661751       0.16793102      -0.01677749
O        6.51370583       6.65066294       6.84761770      -0.04030313      -0.66858582      -0.02287488      -0.33140716      -1.14367855       0.22104897
O        6.56423879       2.06457163       6.78777243       0.20671130       0.33637078      -0.45903044       0.62549269       0.68334490       0.26828283
O        1.10528298       2.27439160       3.22175604      -0.31440696       0.27802959      -0.53059821       0.15724055      -0.28084251       0.12147642
O        8.88802838       6.76757154       3.05362621      -0.22259677       0.17624395       0.32737472      -0.65303200      -0.94686621      -0.16889197
O        5.06697095       4.53382879       3.17935753      -0.29367565       0.22584176       0.52408415       0.22013232      -0.34176603      -0.34871584
O       10.07530117       4.53919686       3.89959315      -0.44781627       0.07608625      -0.02157278       0.24910495      -0.05973113       0.22433428
O       10.34604432       4.43936588       6.56588414       0.03630263       0.42694223       0.36507557      -0.41315287       0.00226331       0.43639421
36
Lattice="7.678093 0.0 0.0 3.839046 6.649423 0.0 0.0 0.0 7.234567" Properties=species:S:1:pos:R:3:momenta:R:3:forces:R:3 energy=-178.06478881835938 stress="0.0007736473926343024 0.00167989288456738 -0.0012037132401019335 0.00167989288456738 0.0062215267680585384 -0.0003272859030403197 -0.0012037132401019335 -0.0003272859030403197 -0.0019293837249279022" free_energy=-178.06478881835938 pbc="T T T"
H        1.21378521       2.34432403       1.40478875       0.05537112       0.06865528      -0.05383365       0.15709154      -0.22677419       0.46473768
H        5.11856679      -0.16031364       1.38994103      -0.04533005       0.17751844       0.03263094      -0.02672230       0.27624696       1.16105270
H        5.19692569       4.35765030       1.54508618      -0.13059624      -0.23012051       0.01628096      -0.05054051      -0.05438998      -0.49858928
H        6.34371787       6.64619876       5.08087042       0.06224856      -0.07739667       0.03432991       0.21806270       0.13040741       0.13028371
H       10.21121683       4.47589510       5.06100770      -0.07077917       0.00085628      -0.14092825      -0.05615337       0.11662319      -0.87565780
H        6.46158919       2.18094747       5.04983297      -0.10650763       0.01113731      -0.00010574       0.08837394      -0.27727640       0.92829037
H        4.19614106      -0.14951440       0.09395104       0.06375862      -0.04039055      -0.11134724      -0.21292318       0.09280133       0.03935952
H        1.71126297       3.06408398       0.04196262      -0.02817790       0.09884500       0.00510859      -0.48209268      -1.02026534       0.43292031
H        5.56548624       3.48799227       0.21986342       0.14964361      -0.02212222       0.19195389       0.25213236      -0.23924534       0.01200280
H        7.31809831       6.70650197       3.78994406       0.08809745       0.04048094      -0.00111271       0.14653783       0.11958433      -0.03427985
H        9.76947072       3.70151549       3.71481760      -0.06994906      -0.16068043      -0.06922446      -0.04888597       0.09053256      -0.07313737
H        5.94199206       3.07177213       3.90762382      -0.08327071      -0.16052556      -0.01371751       0.06055867       0.06069070      -0.44315955
H        5.89342263       5.83868744       7.21964663       0.01075945       0.21467839       0.06076614       0.01905606       0.00891316      -0.13801312
H        5.90234572       7.46763804       7.04337557       0.08363267      -0.03887894      -0.09730891       0.15982506      -0.50832736       0.27150142
H        9.70160487       5.15162696       7.14456122      -0.02882802      -0.04679561       0.02698527       0.57195675       0.12582682      -0.05186401
H        7.28689226       2.14207010       7.18767015       0.16588410      -0.05404823      -0.05217565       0.10790575      -0.19961272       0.06986023
H        5.91913887       1.22809290       7.08948837      -0.04708012      -0.04777038       0.04370788       0.21132404       0.18053290       0.24021362
H        1.74814912       1.53477926       3.46545874      -0.16597286      -0.10985161       0.01182230      -0.20967288      -0.14685826       0.04133800
H        9.48053580       7.52577566       3.38236315       0.01760389       0.06634369      -0.08741495      -0.08692092      -0.22571930       0.02395321
H        9.39420453       5.91611156       3.44694612      -0.05391840      -0.05190649       0.01475568       0.34647676      -0.22108577       0.17847395
H        4.25406392       4.58738470       3.55389956       0.11949805       0.04745097       0.02729543      -0.37034577      -0.27595285       0.00391720
H        5.61816433       5.36462822       3.59165601       0.08326813       0.09395722       0.01195916       0.09533007      -0.31852621      -0.24659832
H        0.32549680       2.30328612       3.39174871       0.03526107      -0.19060856      -0.05233019      -0.54601675      -0.17762414       0.52012980
H       11.16826891       4.35540796       6.98946455       0.10257546      -0.17197726       0.09329010       0.45176092       0.27714795       0.66500181
O        1.21661413       2.21984907       0.42127136      -0.07259868      -0.16772638       0.14324026       0.60339487       1.10864806      -1.13508916
O        5.14183485      -0.17260583       0.41330136      -0.11604003       0.26063663       0.12273904      -0.06663766      -0.19206883      -1.27752256
O        5.16602175       4.34579438       0.53273369      -0.10148560       0.56385076       0.36129993      -0.29758921       0.45142931       0.38947743
O        6.36969463       6.76221757       4.08679643       0.38638245      -0.17715005       0.64268179      -0.12852381      -0.12655795      -0.09345947
O        6.46028235       2.22914591       4.07347748       0.19391263      -0.46701364      -0.08017401      -0.32924026       0.30391467      -0.53043002
O        6.38657090       6.60850285       6.80256548      -0.28642984       0.09297282      -0.40265082      -0.21181887       0.35584652      -0.05487015
O        6.33796295       2.11311809       6.86880977       0.21760028       0.30716984      -0.40404080      -0.23943458       0.08742876      -0.44912997
O        1.26037065       2.31800811       3.08689852       0.62367619       0.16508948       0.25441058       0.86554611       0.32801142      -0.33783799
O        8.97941601       6.72294678       3.04099009      -0.77266734       0.35435989       0.05982009      -0.36108479       0.32482100       0.09785348
O        5.20117693       4.49401488       3.27472793       0.22001923       0.00373950       0.40853916       0.14151457       0.42496240       0.16603971
O       10.20925792       4.54625650       4.02996357       0.08266926      -0.55183856      -0.22114728       0.05424436      -0.19675578       0.98276699
O       10.22149554       4.37762745       6.73389563      -0.58223057       0.19905920      -0.77610494      -0.82648897      -0.45732874      -0.57953471
36
Lattice="7.678093 0.0 0.0 3.839046 6.649423 0.0 0.0 0.0 7.234567" Properties=species:S:1:pos:R:3:momenta:R:3:forces:R:3 energy=-178.01731872558594 stress="0.0002519296540413052 0.0014582242583855987 0.0009169740951620042 0.0014582242583855987 0.005685638170689344 0.002027984010055661 0.0009169740951620042 0.002027984010055661 0.002454196335747838" free_energy=-178.01731872558594 pbc="T T T"
H        1.35633727       2.38172508       1.35204622       0.01204954      -0.08438829      -0.08280516      -0.06151765      -0.01846118       0.46259388
H        5.12287920       0.02058788       1.49621319      -0.02072205       0.07039581       0.04866441      -0.14832586      -0.18909287      -0.65946162
H        5.29392413       4.40781587       1.46555671       0.03326178      -0.02318516      -0.08060940      -0.38906658       0.09703089      -0.09343947
H        6.38052022       6.65635613       5.06340290       0.04141998      -0.05029025      -0.07063849       0.11307093       0.11349481       1.12166119
H       10.18142719       4.47560020       5.01577998      -0.10274812       0.11792078       0.05831826       0.12037728      -0.42986858      -0.82394671
H        6.39774601       2.24739684       5.11616093      -0.03586279      -0.00488864      -0.06984647       0.05612348      -0.26926512       0.14935693
H        4.17877674       0.08106699       0.16754196      -0.13646778       0.01738307       0.00422210      -0.45473683      -0.09552540      -0.00210096
H        1.78520486       3.18420872      -0.00712287      -0.02069047      -0.01298770       0.00117707      -0.38354403      -0.48617485       0.51043975
H        5.61836500       3.66758589       0.06879462      -0.00403009       0.02506654      -0.04865147      -0.32664397       0.60394174       0.44860464
H        7.37617381       6.59220186       3.83435562       0.17938057      -0.08869287      -0.01897568       0.56503862       0.02785082      -0.18133453
H        9.74091389       3.51320077       3.71779025       0.02106170       0.08746118      -0.02312084       0.22824848       0.44904232       0.29429018
H        5.85659513       2.93777652       3.81040276      -0.11257495      -0.08814259      -0.00942736      -0.05613507       0.24325593      -0.38815254
H        5.74674615       6.00994592       7.02734162      -0.05086491      -0.03700004      -0.00243609       0.61125958      -0.37273145       0.21913637
H        5.78821384       7.54974427       7.07577377      -0.05934773      -0.01940600       0.07980308       0.29964024       0.54108042       0.00424474
H        9.81467107       5.35607896       7.07379476       0.02898662       0.03911712      -0.09453124       0.08344176      -0.25674707       0.16425934
H        7.32127835       2.34756643       7.18596619      -0.09831848      -0.02926563       0.31853488      -0.01814196      -0.12162671      -0.18938348
H        6.03702337       1.38319060       7.16734601       0.05791147      -0.05000831      -0.17529965      -0.31453016      -0.03059267       0.03853772
H        1.66906447       1.32670661       3.48989037      -0.04830894       0.12666375       0.03687690       0.12745221       0.28627813      -0.22550273
H        9.51626851       7.40619394       3.55690767       0.02602645      -0.02639857       0.08330498       0.14904059       0.04610622       0.26812589
H        9.45975453       5.76298941       3.49162937       0.16429710       0.10285537      -0.01584412       0.26977798      -0.04232544       0.13842714
H        4.18990522       4.32256942       3.53179011       0.10583483      -0.00380798       0.05271079      -0.52609539      -0.19804345      -0.34310842
H        5.55603569       5.05303346       3.57786784       0.03267423      -0.21400855      -0.03090641       0.08236431      -0.25077161      -0.58115590
H        0.33842736       2.16866341       3.50583468       0.09050518       0.04147890       0.02049137      -0.66801000       0.10512736       0.13145395
H       11.20849688       4.48698841       7.09801562       0.05593157       0.11317150      -0.17471613       0.09451473       0.17671804       0.15945441
O        1.25832165       2.37861202       0.37309618      -0.34625715      -0.05410589       0.06062090       0.28150699       0.54482341      -0.77800959
O        5.11078305      -0.03580233       0.47331339      -0.17991684       0.80604627      -0.57728718       0.58177477       0.28037512       0.78274792
O        5.18315171       4.50487997       0.47272149       0.16133663      -0.97042934      -0.08117897       0.25069761      -0.76464176      -0.67076278
O        6.42507360       6.57540006       4.09456609       0.09061119      -0.21679243      -0.43946828      -0.81027454      -0.16176203      -1.08447003
O        6.39128361       2.15821950       4.12001215      -0.07888936       0.27634117       0.50836711       0.13643616      -0.03273779       0.15477410
O        6.34257457       6.77655634       6.78118861      -0.01837817      -0.06728867       0.60809340      -0.55711746      -0.19455871      -0.05300678
O        6.38538105       2.24656798       6.81727635       0.17091605       0.12608210       0.35953118       0.30769655       0.21824768       0.04285577
O        1.25017665       2.17263069       3.13305670       0.10964992       0.37695145      -0.43963425       0.76740098      -0.37020487       0.09411098
O        9.00388772       6.61323720       3.23603260       0.55647841      -0.61812863      -0.18545008      -0.52365535       0.00595821      -0.60351133
O        5.09394046       4.28452840       3.10705020      -0.02722878      -0.25544618       0.33657659       0.59777892       0.70744306       1.06116831
O       10.23499091       4.36608704       3.99657765      -0.43766882       0.52710369       0.66926663      -0.26549026      -0.20521536       0.73594767
O       10.27527961       4.51602475       6.74318019      -0.16005778       0.06062303      -0.62573240      -0.22035697       0.04357325      -0.30484420
36
Lattice="7.678093 0.0 0.0 3.839046 6.649423 0.0 0.0 0.0 7.234567" Properties=species:S:1:pos:R:3:momenta:R:3:forces:R:3 energy=-177.9761199951172 stress="0.002849465236067772 0.0016108283307403326 -0.0036285382229834795 0.0016108283307403326 -0.0022630805615335703 0.0024461799766868353 -0.0036285382229834795 0.0024461799766868353 -0.0035685133188962936" free_energy=-177.9761199951172 pbc="T T T"
H        1.18608739       2.17066414       1.32496441      -0.04057571       0.02534916      -0.03838247       0.12452883       0.20102103       0.30697528
H        5.12069269       0.00962291       1.51197547      -0.04435502       0.00066737       0.00151632      -0.02423170      -0.17056398       0.00484398
H        5.18094382       4.37775885       1.45624768       0.06026304      -0.04600803      -0.01159209      -0.09757898      -0.13016453       0.86368382
H        6.31475280       6.75867429       4.96112297      -0.14589863       0.05890307       0.04926962       0.04463545      -0.32544863      -0.19955289
H       10.15964488       4.46241109       5.15650251      -0.18734990       0.00493981       0.16081907      -0.04322612      -0.17083260       0.17163199
H        6.43980611       2.23460022       5.03451100      -0.05445688      -0.12668162      -0.20093882      -0.18416822       0.26931274       0.13637607
H        4.14608294      -0.04669417       0.23549378       0.11405571       0.10607170       0.10499095      -0.54405695      -0.01894870      -0.28699961
H        1.78055496       3.02194678       0.09816191       0.06796156       0.07469127       0.20449082      -0.33317196      -0.20976636       0.06315082
H        5.44872567       3.56781519       0.08039772      -0.06885315       0.12388316       0.06952755      -0.13123208       0.80542624       0.58187151
H        7.40473229       6.65704122       3.81748821       0.16820042      -0.08358500       0.07912841      -0.59755385      -0.02433819      -0.22626057
H        9.65982986       3.74405451       3.78657562      -0.08603134       0.11863014      -0.06243001       0.10294221      -0.36556238      -0.05653615
H        6.01142383       3.11010609       3.70647295       0.13167975       0.04463324      -0.09563918      -0.26252946       0.44055343       0.25329727
H        5.99659458       5.79150292       7.19786883       0.00763032       0.00985329       0.16317009      -0.23524705      -0.07891686      -0.05521584
H        6.01330080       7.40788039       7.14109771       0.01312967       0.07992540      -0.03429427      -0.05532031      -0.31499848      -0.13260974
H        9.73116428       5.23633049       7.18939483      -0.11572916       0.04837038      -0.09133460      -0.67607999       0.50814372       0.10053886
H        7.22439087       2.21627557       6.98650425       0.03728343      -0.20128919      -0.01295018       0.61864322       0.05267607       0.32409286
H        5.92836815       1.32077061       7.14721533      -0.09028414      -0.03342169      -0.16766567      -0.25048217      -0.01963690      -0.07306001
H        1.71665097       1.48982758       3.38912840       0.03081468      -0.09798625      -0.03504347       0.01016675      -0.00229717      -0.04733060
H        9.45330609       7.46779319       3.57354852      -0.00043368      -0.05403096       0.09886838      -0.09069777      -0.09022889      -0.22360110
H        9.53015443       5.90567773       3.67770572       0.04424835       0.01588806      -0.09575514       0.44117898      -1.08433294       0.19788775
H        4.28053289       4.41118758       3.64656083      -0.04688989      -0.04408993      -0.01496103       0.93994069       0.15535983      -0.56269079
H        5.66755098       5.25117264       3.42688274      -0.00358102       0.02929401       0.03283515       0.37840086       1.00883150       0.59015870
H        0.32439698       2.30344363       3.40576694      -0.05679486       0.04608754       0.05388823       0.15691212      -0.13485909       0.06145357
H       11.10948908       4.56149531       7.05260890       0.03187429      -0.08844208      -0.09628966      -0.04300047      -0.44230160       0.04382766
O        1.23500324       2.20273608       0.33139606      -0.04909676      -0.30067478      -0.70121421       0.22582553      -0.01903336      -0.41673622
O        5.09837195      -0.05585555       0.51537238       0.45172154       0.21430873       0.11957178       0.78532600       0.17916256       0.39027655
O        5.08224773       4.44357487       0.48699629      -0.01879691       0.22846290       0.04177944       0.24894796      -0.76510042      -1.53451812
O        6.39259245       6.65804105       3.96814504       0.12849043       0.26566824      -0.64363082       0.73703933       0.41594332       0.46021375
O        6.51158900       2.31635520       4.04576354      -0.01630058       0.38986698       0.79460717       0.27197108      -0.99575412      -0.25223756
O        6.48075669       6.57568248       6.81289387       0.18614527      -0.21469981      -0.09949747      -0.08210788       0.61652327       0.02986807
O        6.27180781       2.17196285       6.74484056      -0.23406550      -0.14913058      -0.09488124      -0.35968497       0.05938716      -0.18883777
O        1.26329840       2.29931614       3.02651561      -0.18858290      -0.24782296       0.19461302      -0.09082461       0.06715072       0.06075943
O        9.00766818       6.62195374       3.26324590      -0.04644670       0.10359724      -0.13817390      -0.40308496       1.48518085      -0.11859451
O        5.22456126       4.40511126       3.23087662       0.31853229       0.01475443       0.23069867      -1.79931617      -1.07682061      -0.12614153
O       10.23156603       4.46441293       4.15892008      -0.05484705      -0.68131456       0.43277320       0.35074666       0.32929939      -0.40389636
O       10.15550950       4.45103908       6.76123081      -0.24266097       0.36533128      -0.19787361       0.86639053      -0.15406603       0.26391196
36
Lattice="7.678093 0.0 0.0 3.839046 6.649423 0.0 0.0 0.0 7.234567" Properties=species:S:1:pos:R:3:momenta:R:3:forces:R:3 energy=-178.02084350585938 stress="0.0046912627294659615 -0.0026500846724957228 -0.0007908197003416717 -0.0026500846724957228 0.0042789108119904995 0.0015645205276086926 -0.0007908197003416717 0.0015645205276086926 0.009038996882736683" free_energy=-178.02084350585938 pbc="T T T"
H        1.33636085       2.29713940       1.60645578       0.00978387       0.07546145      -0.04254389       0.11470295       0.32765168      -0.38347590
H        5.16604258      -0.01287653       1.41200774       0.04269174       0.05068838       0.03252989      -0.02319340      -0.10925648      -0.01859799
H        5.17010933       4.35558314       1.39459849      -0.10634347       0.16486663       0.01661743      -0.02506387       0.14314699      -0.86097658
H        6.45055565       6.73589107       5.12026069       0.11268213      -0.00295064       0.02492588      -0.03240081      -0.13115945      -0.10230400
H       10.13167541       4.46940270       4.91020500       0.02865492      -0.01127428       0.03128466       0.23063883       0.02364529      -0.29123476
H        6.29736270       2.13254164       5.22320759      -0.06031811      -0.04378914       0.07495147      -0.02111321       0.12951253      -0.18601686
H        4.30768193       0.04775041       0.06608628       0.03079521       0.08453443       0.16689457      -0.79618269      -0.11587882      -0.06746042
H        1.82697109       3.09456887       0.17984163       0.08501371      -0.16486513       0.01533141       0.11734013       0.00984629       0.39564341
H        5.72949071       3.52752160       0.12377309      -0.07399527       0.15873335       0.08782742      -0.47303194       0.52000976       0.09014903
H        7.23824458       6.73966324       3.72788198      -0.06870458       0.10501874       0.18095230       0.66895449      -0.01891067      -0.21552089
H        9.64611090       3.66462173       3.62640799      -0.10127565       0.10703475      -0.09298541      -0.02517452       0.13708720       0.05548227
H        5.68225313       3.00046774       3.96099579      -0.00651911       0.02010417       0.02466207       0.26747811       0.03758291       0.02659194
H        6.12532802       5.83576039       7.16710917       0.09800791      -0.04256374       0.03088155      -0.98516500      -0.96756101       0.55029392
H        5.99399510       7.47795370       7.21068752       0.02069703      -0.09685936       0.05996679      -0.10104929      -0.25806010       0.28469944
H        9.81427244       5.19200166       6.91287692      -0.05302270       0.16151008       0.02277327       0.35978314      -0.21147469       0.14252542
H        7.52727626       2.08001683       7.17055552       0.14937181       0.09902835       0.02635152      -0.17839228      -0.28433603       0.25668573
H        6.03775160       1.24472935       7.14182936       0.06617867      -0.02335833      -0.06048567       0.52382857      -0.18931380       0.32619661
H        1.56027687       1.43700844       3.66049731       0.02244876       0.00649464       0.05224476       0.30496421      -0.30812368       0.03447646
H        9.33787014       7.56169889       3.45530182      -0.03419826      -0.05088979       0.04049715      -0.20620665      -0.53681767      -0.11112217
H        9.38562370       5.93165203       3.42703478      -0.06601857      -0.00039802      -0.08684447      -0.19054686       0.11222401      -0.19056019
H        4.11641901       4.52524962       3.43239953      -0.09964502      -0.01446008      -0.10988089       0.31309682       0.00609203      -0.22180140
H        5.49798165       5.32889111       3.52825075       0.01878262       0.02604523      -0.15227771       0.11705858      -0.05262725      -0.06013849
H        0.19286637       2.26694690       3.61084664      -0.00852705      -0.11587639      -0.12523741       0.04485401      -0.04489881      -0.09081051
H       11.24881267       4.43046065       7.01601935      -0.10064149      -0.13123510       0.16062693      -0.22141883      -0.04490309      -0.33760875
O        1.40418041       2.28823826       0.59770152      -0.63408029      -0.65575975      -0.06535808      -0.22764540      -0.48342204      -0.28328663
O        5.21786864      -0.10183305       0.40415244       0.53218175      -0.08490863       1.02121227       0.73864764       0.15461427       0.05654430
O        5.18888045       4.35922180       0.36643009       0.83511727      -0.76965126       0.06674052       0.53806585      -0.69741833       0.92558420
O        6.33837633       6.71186947       4.12383182       0.09855488      -0.21843746      -0.12374453      -0.60658950       0.09054679       0.39515370
O        6.18045256       2.17272426       4.21569673      -0.38614776      -0.32440935       0.24221401       0.09805045       0.18946475      -0.02253546
O        6.49826351       6.67833396       6.88147266       0.16157251      -0.09557154      -0.47781435       0.89559728       1.41389823      -0.94015640
O        6.57742340       2.04214630       6.84594352      -0.16599022       0.03400529      -0.49236119      -0.36136737       0.64607692      -0.46248555
O        1.13533300       2.24485153       3.27269646      -0.09181355       0.17060335      -0.70333381      -0.37398505       0.31327072      -0.07642515
O        8.89992421       6.73294012       3.04284791      -0.08724532       0.48693468      -0.14620793       0.19024295       0.30758628       0.31930384
O        5.08319647       4.50752725       3.13359121      -0.11849632       0.45366762       0.64680673      -0.54604971      -0.15017948       0.24684721
O       10.10700242       4.51770124       3.89793463      -0.31396228       0.24863432       0.20535049       0.06596150      -0.20803875       0.41329661