3
Properties=species:S:1:pos:R:3:forces:R:3 energy=-14.276045723305204 stress="inf inf -inf inf inf inf -inf inf inf" free_energy=-14.276045723305204 pbc="F F F"
H        0.00000000      -0.06508555      -0.34816398       0.00000000       0.00005906       0.00004373
O        0.00000000       0.71673578       0.22555846      -0.00000000      -0.00008359       0.00001685
H       -0.00000000       0.34834977       1.12260553       0.00000000       0.00002453      -0.00006058
