3
Properties=species:S:1:pos:R:3:forces:R:3 energy=-14.276045723406753 stress="-inf -inf -inf -inf -inf -inf -inf -inf inf" free_energy=-14.276045723406753 pbc="F F F"
H        0.00000000      -0.06508485      -0.34816328      -0.00000000      -0.00000002      -0.00000002
O        0.00000000       0.71673494       0.22555865       0.00000000       0.00000001       0.00000005
H       -0.00000000       0.34834991       1.12260463      -0.00000000       0.00000001      -0.00000003
