240
Lattice="12.000368598888711 -0.057597994088353345 -0.034503642438542245 -0.12425976161262027 11.98228729594779 -0.025739398368198153 0.026296601308896543 -0.08395300832808965 11.305158185027631" Properties=species:S:1:pos:R:3:forces:R:3 energy=-1193.135412445283 stress="8.364578067522957e-06 3.044330542457502e-06 -7.923682132662577e-06 3.044330542457502e-06 2.06055282979227e-06 6.335731385718293e-07 -7.923682132662577e-06 6.335731385718293e-07 -1.1811089522830581e-05" pbc="T T T"
H        2.61273976       1.44934590       0.03527815      -0.00003518       0.00001546       0.00003404
H        3.09445155       4.39695831       5.51469546      -0.00003681       0.00000595       0.00003326
H        0.17964118       1.43527551       0.03630204      -0.00000965       0.00003309      -0.00004356
H        5.52749644       4.41102172       5.51383620       0.00000956      -0.00000028      -0.00004471
H        1.33260788       2.16217562       1.96266763       0.00000805       0.00007685      -0.00005432
H        4.37445289       3.68398377       3.58744302       0.00002639       0.00005769      -0.00002824
H        1.37296321       0.61694976       1.88641538      -0.00002766      -0.00000464       0.00001445
H        4.33413296       5.22922047       3.66360190      -0.00000380      -0.00000672       0.00001716
H        1.38379307       4.04696202       3.45284236       0.00006951      -0.00001191       0.00003958
H        4.32315643       1.79929738       2.09716892       0.00003299      -0.00000348       0.00003818
H        4.03044387       1.41305412       4.86112480      -0.00004484      -0.00001115      -0.00000549
H        1.67672701       4.43327810       0.68885469      -0.00005774      -0.00001931       0.00003017
H        2.11536389       2.66886073       3.91130304       0.00001259       0.00001943       0.00003800
H        3.59170375       3.17744219       1.63864301       0.00001168      -0.00001282       0.00004409
H        2.16399370       0.21353832       3.91564146       0.00005037      -0.00001596      -0.00002790
H        3.54307642       5.63269660       1.63443092       0.00004288      -0.00001142       0.00000244
H        0.62506006       0.12001627       3.91991889      -0.00002187      -0.00002156      -0.00004613
H        5.08200884       5.72631389       1.63026837      -0.00001004      -0.00003846      -0.00003679
H        0.13709451       2.13049420       4.30057199      -0.00001715      -0.00000974      -0.00005542
H        5.57006574       3.71580759       1.24955148      -0.00005170       0.00002043      -0.00003283
O        1.36267176       1.41552951       1.29463617       0.00000445       0.00001095       0.00001758
O        4.34445388       4.43066952       4.25542906       0.00000026       0.00000810       0.00001974
O        1.33279703       3.04550867       3.42621895       0.00000828      -0.00000128       0.00003567
O        4.37421586       2.80074410       2.12377937       0.00004895       0.00000684      -0.00000621
O        1.35300431       5.71604684       3.44763153       0.00002000       0.00000052      -0.00003723
O        4.35401383       0.13019649       2.10253472       0.00002756       0.00006277      -0.00006333
O        5.70152446       1.36527356       4.80047064       0.00004961      -0.00002790      -0.00002927
O        0.00560631       4.48104635       0.74966034      -0.00001435       0.00002362       0.00001245
O        3.03112342       1.42018776       4.78110759      -0.00003903      -0.00003507       0.00003077
O        2.67604168       4.42615920       0.76886464      -0.00004919      -0.00001579       0.00001653
H        2.62588844       1.40736977       5.68785635      -0.00003108       0.00001328       0.00004219
H        3.10759879       4.35498206      11.16727556      -0.00002305       0.00000497       0.00002646
H        0.19278797       1.39330349       5.68887934      -0.00000427      -0.00002185      -0.00000416
H        5.54064725       4.36904696      11.16641065      -0.00001817      -0.00003257       0.00002157
H        1.34575536       2.12020333       7.61524386       0.00001578       0.00001169      -0.00002656
H        4.38760071       3.64200844       9.24002464       0.00003142       0.00001853      -0.00004523
H        1.38611111       0.57496921       7.53899326      -0.00002659       0.00005913       0.00003079
H        4.34728126       5.18724125       9.31618172      -0.00000518       0.00004517       0.00001766
H        1.39694525       4.00498346       9.10541994       0.00002881       0.00001987       0.00004723
H        4.33630211       1.75731862       7.74975214       0.00004781       0.00003077      -0.00000130
H        4.04359055       1.37107910      10.51370245      -0.00001759      -0.00002413       0.00000078
H        1.68987432       4.39129941       6.34143532      -0.00003821      -0.00000037       0.00001488
H        2.12851284       2.62688681       9.56388051       0.00000641      -0.00001589       0.00005185
H        3.60485143       3.13546593       7.29122378       0.00001569      -0.00002811       0.00003053
H        2.17714701       0.17156117       9.56821814      -0.00001815      -0.00000514      -0.00000544
H        3.55622802       5.59071717       7.28701385      -0.00002343       0.00002013      -0.00002498
H        0.63820456       0.07803971       9.57249586       0.00003661      -0.00001167      -0.00002657
H        5.09515374       5.68433330       7.28285040       0.00005605       0.00000850      -0.00005648
H        0.15024435       2.08851621       9.95314528      -0.00002205      -0.00000929       0.00001947
H        5.58321074       3.67383565       6.90212830      -0.00001439      -0.00003168       0.00001448
O        1.37582298       1.37355255       6.94721771      -0.00001985       0.00001520      -0.00002448
O        4.35760140       4.38869298       9.90801069       0.00000636       0.00000869      -0.00002230
O        1.34594125       3.00353107       9.07880253       0.00004947       0.00001528      -0.00000032
O        4.38736755       2.75876665       7.77635228       0.00002733       0.00002307       0.00004669
O        1.36615271       5.67406973       9.10021377       0.00001930      -0.00000123      -0.00007052
O        4.36716183       0.08822924       7.75510690       0.00003149      -0.00003266      -0.00000877
O        5.71468275       1.32329279      10.45304715      -0.00007236       0.00000209      -0.00001057
O        0.01875235       4.43907609       6.40224285      -0.00002097      -0.00003796      -0.00002079
O        3.04427113       1.37821051      10.43368697      -0.00002656      -0.00002717       0.00003221
O        2.68918910       4.38418462       6.42144287      -0.00003584      -0.00003054       0.00002570
H        2.55060998       7.44049016       0.02240847      -0.00003449       0.00001023       0.00003395
H        3.03232175      10.38810225       5.50182582      -0.00003590       0.00000393       0.00003326
H        0.11751008       7.42642184       0.02343191      -0.00000243       0.00000218      -0.00002999
H        5.46536640      10.40216659       5.50096563       0.00000910      -0.00001486      -0.00002970
H        1.27047667       8.15332330       1.94979590       0.00001988       0.00001884      -0.00003258
H        4.31232240       9.67512753       3.57457325       0.00003162       0.00005585      -0.00002753
H        1.31083280       6.60809001       1.87354479      -0.00002502       0.00004795       0.00002768
H        4.27200275      11.22036392       3.65073233      -0.00000078      -0.00000387       0.00001618
H        1.32166229      10.03810511       3.43997254       0.00007629      -0.00000458       0.00004138
H        4.26102555       7.79044115       2.08429948       0.00004188      -0.00000486       0.00003686
H        3.96831397       7.40419806       4.84825475      -0.00004277      -0.00001345      -0.00000035
H        1.61459593      10.42442029       0.67598730      -0.00004217      -0.00000610       0.00000495
H        2.05323448       8.66000398       3.89843362       0.00000762       0.00001997       0.00003528
H        3.52957418       9.16858536       1.62577364       0.00000790      -0.00000778       0.00004170
H        2.10186591       6.20468251       3.90277011       0.00001830      -0.00001731      -0.00001349
H        3.48094595      11.62384035       1.62156141       0.00004604      -0.00001241       0.00000071
H        0.56292795       6.11116037       3.90704757       0.00001120      -0.00002025      -0.00003243
H        5.01987909      11.71745808       1.61739884      -0.00000975      -0.00004247      -0.00003761
H        0.07496389       8.12163823       4.28770083      -0.00000654      -0.00001838      -0.00003344
H        5.50793483       9.70695261       1.23668089      -0.00004031       0.00000541      -0.00001360
O        1.30054425       7.40667294       1.28176883      -0.00001482       0.00001365      -0.00001912
O        4.28232510      10.42181311       4.24255950      -0.00000924       0.00000857       0.00001791
O        1.27066753       9.03665207       3.41334929       0.00000593       0.00000146       0.00003445
O        4.31208689       8.79188792       2.11090885       0.00004164       0.00000479      -0.00000208
O        1.29087443      11.70719194       3.43475856       0.00001919       0.00000257      -0.00000912
O        4.29188420       6.12134052       2.08966502       0.00002605       0.00006024      -0.00006289
O        5.63939610       7.35641756       4.78760109       0.00002352      -0.00003263      -0.00003164
O       -0.05652738      10.47219475       0.73679329       0.00001813      -0.00002208      -0.00001233
O        2.96899347       7.41133017       4.76823841      -0.00003753      -0.00002442       0.00002501
O        2.61391091      10.41730366       0.75599374      -0.00003846      -0.00002365       0.00003069
H        2.56375813       7.39851396       5.67498722      -0.00002542       0.00000828       0.00003613
H        3.04547126      10.34612574      11.15440560      -0.00005011       0.00000483       0.00002946
H        0.13065750       7.38444666       5.67601137       0.00000300      -0.00001153      -0.00002886
H        5.47851586      10.36019053      11.15354278      -0.00000316      -0.00002402      -0.00000342
H        1.28362508       8.11134567       7.60237448       0.00001842       0.00003599      -0.00003196
H        4.32546978       9.63315150       9.22715453       0.00004015       0.00003153      -0.00004333
H        1.32398086       6.56611458       7.52612399      -0.00002244       0.00003113       0.00002425
H        4.28515056      11.17838569       9.30331203       0.00000209       0.00003052       0.00001606
H        1.33481473       9.99612615       9.09255168       0.00002938       0.00003073       0.00003193
H        4.27417076       7.74846299       7.73688200       0.00006437       0.00002038       0.00000452
H        3.98146103       7.36222251      10.50083308      -0.00002367      -0.00002246       0.00000035
H        1.62774450      10.38244340       6.32856599      -0.00004074      -0.00000399       0.00001178
H        2.06638264       8.61803124       9.55101119       0.00001100      -0.00002810       0.00004985
H        3.54272188       9.12660807       7.27835448       0.00001304      -0.00000870       0.00002627
H        2.11501706       6.16270551       9.55534768      -0.00002065      -0.00001056       0.00000281
H        3.49409559      11.58186166       7.27414424       0.00001518       0.00001037      -0.00002841
H        0.57607393       6.06918438       9.55962562       0.00004559      -0.00002015      -0.00002028
H        5.03302607      11.67547821       7.26998050       0.00002112      -0.00000693      -0.00005771
H        0.08811375       8.07966063       9.94027818      -0.00001872      -0.00001203      -0.00001380
H        5.52108086       9.66497885       6.88925995      -0.00001738      -0.00002363      -0.00000446
O        1.31369388       7.36469647       6.93434700      -0.00002652       0.00001201      -0.00000656
O        4.29547392      10.37983670       9.89514039      -0.00001397       0.00000788      -0.00001218
O        1.28381222       8.99467410       9.06593034       0.00004515       0.00002297       0.00002363
O        4.32523880       8.74991066       7.76348237       0.00001431       0.00001794       0.00004810
O        1.30402317      11.66521519       9.08734164       0.00001617      -0.00001820      -0.00004575
O        4.30503186       6.07937548       7.74223705       0.00003263      -0.00006518      -0.00001383
O        5.65254969       7.31443748      10.44017812      -0.00003493      -0.00000196      -0.00001389
O       -0.04337685      10.43022007       6.38937340      -0.00003246      -0.00004004      -0.00002297
O        2.98214135       7.36935315      10.42081732      -0.00002937      -0.00001815       0.00003106
O        2.62705912      10.37532755       6.40857307      -0.00003560      -0.00002481       0.00002623
H        8.61292690       1.42054768       0.01802540      -0.00006416       0.00000903       0.00004234
H        9.09463499       4.36815942       5.49744483      -0.00002664       0.00000543       0.00002320
H        6.17982223       1.40647933       0.01905252       0.00001835       0.00001102      -0.00006697
H       11.52768185       4.38222201       5.49658360       0.00000024       0.00000615      -0.00003780
H        7.33279063       2.13337739       1.94541314       0.00002100       0.00007444      -0.00003298
H       10.37463645       3.65518346       3.57019360       0.00003264       0.00007062      -0.00004915
H        7.37314630       0.58815069       1.86916317      -0.00001813      -0.00000809       0.00001637
H       10.33431695       5.20042232       3.64635100      -0.00000132      -0.00001598       0.00000905
H        7.38398006       4.01816230       3.43558901       0.00004277      -0.00000406       0.00005029
H       10.32333732       1.77049724       2.07992095       0.00005698       0.00001013       0.00000328
H       10.03062895       1.38425647       4.84387089      -0.00005546      -0.00002318       0.00001480
H        7.67691054       4.40447740       0.67160551      -0.00004747      -0.00000435       0.00000551
H        8.11554845       2.64006340       3.89405024       0.00001237       0.00000053       0.00004646
H        9.59188745       3.14864283       1.62139282       0.00001754      -0.00001588       0.00003123
H        8.16417693       0.18474049       3.89838732       0.00007778      -0.00002810      -0.00001125
H        9.54326048       5.60389692       1.61718131       0.00003303      -0.00000382      -0.00001436
H        6.62524578       0.09121994       3.90266476      -0.00005075      -0.00004940      -0.00003053
H       11.08219254       5.69751366       1.61301826       0.00000575      -0.00002401      -0.00004907
H        6.13728093       2.10169238       4.28331921      -0.00003733       0.00001718      -0.00005258
H       11.57024724       3.68701177       1.23230173      -0.00002758      -0.00000786      -0.00004964
O        7.36286064       1.38673027       1.27738405      -0.00003396       0.00001274       0.00002195
O       10.34463830       4.40187093       4.23817728      -0.00000075       0.00000421       0.00002082
O        7.33297863       3.01670913       3.40897010       0.00003328       0.00000439       0.00001336
O       10.37440404       2.77194468       2.10652116       0.00001899       0.00001277       0.00004862
O        7.35318894       5.68724485       3.43038219       0.00001674       0.00003650      -0.00005877
O       10.35419823       0.10140383       2.08527483       0.00002683       0.00001421       0.00001029
O       11.70171361       1.33647072       4.78321671       0.00000176       0.00000526      -0.00001163
O        6.00578435       4.45225301       0.73241174       0.00004053      -0.00002551      -0.00001545
O        9.03130834       1.39138745       4.76385688      -0.00004632      -0.00002388       0.00001948
O        8.67622506       4.39736056       0.75161155      -0.00003933      -0.00001918       0.00003016
H        8.62607091       1.37857081       5.67060538      -0.00001116       0.00001303       0.00003508
H        9.10778516       4.32618359      11.15002287      -0.00004509       0.00000058       0.00003437
H        6.19297387       1.36450375       5.67162590      -0.00001883      -0.00001808       0.00001540
H       11.54082888       4.34025009      11.14916043       0.00000474      -0.00005082       0.00000750
H        7.34593921       2.09140531       7.59799361       0.00002004      -0.00000617      -0.00003797
H       10.38778437       3.61321282       9.22276905       0.00003742      -0.00002057      -0.00001122
H        7.38629527       0.54616935       7.52174165      -0.00002450       0.00007596       0.00003155
H       10.34746524       5.15844005       9.29892853      -0.00000284       0.00007418       0.00003226
H        7.39712555       3.97618370       9.08817126       0.00006034       0.00002963       0.00002030
H       10.33648864       1.72852026       7.73249655       0.00003244       0.00002561       0.00003200
H       10.04377401       1.34227836      10.49645429      -0.00000681      -0.00000944      -0.00003339
H        7.69005868       4.36250160       6.32418216      -0.00004180      -0.00001050       0.00002774
H        8.12869683       2.59808664       9.54663049       0.00000854      -0.00000905       0.00003690
H        9.60503676       3.10666705       7.27397073       0.00000625      -0.00002484       0.00003958
H        8.17733053       0.14276242       9.55096784      -0.00002277      -0.00000495      -0.00001750
H        9.55641291       5.56191979       7.26975845      -0.00002114       0.00000514       0.00000314
H        6.63838814       0.04924014       9.55524521       0.00005293      -0.00000380      -0.00003525
H       11.09533780       5.65553699       7.26559562       0.00005082      -0.00001542      -0.00003308
H        6.15042548       2.05972101       9.93589574       0.00000637      -0.00004432       0.00000400
H       11.58339686       3.64503414       6.88487500      -0.00002970      -0.00000983       0.00002685
O        7.37600649       1.34475392       6.92996710      -0.00001445       0.00001234      -0.00004112
O       10.35778829       4.35989356       9.89075995      -0.00001562       0.00001277      -0.00003910
O        7.34612958       2.97473179       9.06154484       0.00001713       0.00001971       0.00004893
O       10.38754884       2.72996785       7.75910583       0.00005087       0.00002119       0.00000132
O        7.36633672       5.64527743       9.08295481       0.00002258      -0.00005897      -0.00001013
O       10.36734634       0.05942673       7.73786234       0.00003026      -0.00002186      -0.00007486
O       11.71485923       1.29450090      10.43579930      -0.00000171      -0.00005868      -0.00004412
O        6.01894060       4.41027382       6.38498910      -0.00005538      -0.00000928      -0.00000428
O        9.04445460       1.34941139      10.41643363      -0.00001765      -0.00002595       0.00004757
O        8.68937360       4.35538448       6.40419190      -0.00003908      -0.00002124       0.00001695
H        8.55079256       7.41169064       0.00515598      -0.00000901       0.00001444       0.00003711
H        9.03250655      10.35930325       5.48457495      -0.00004654       0.00000385       0.00002608
H        6.11769394       7.39762317       0.00618037       0.00000151      -0.00000015      -0.00003406
H       11.46555204      10.37336490       5.48371481       0.00000172       0.00001603      -0.00005115
H        7.27066160       8.12452155       1.93254395       0.00001375       0.00006513      -0.00003661
H       10.31250728       9.64632730       3.55732369       0.00002714       0.00006293      -0.00004566
H        7.31101716       6.57929387       1.85629318      -0.00002428       0.00000106       0.00001922
H       10.27218739      11.19156503       3.63348139      -0.00000428      -0.00000195       0.00001024
H        7.32185157      10.00930511       3.42272002       0.00002562       0.00000744       0.00004195
H       10.26120756       7.76164268       2.06704925       0.00006534      -0.00001125       0.00002467
H        9.96849966       7.37540031       4.83099962      -0.00006004      -0.00002500       0.00003371
H        7.61478056      10.39562101       0.65873555      -0.00004585      -0.00000375       0.00000368
H        8.05341835       8.63120878       3.88117991       0.00001411      -0.00002182       0.00005342
H        9.52975780       9.13978459       1.60852305       0.00001362       0.00001162       0.00002989
H        8.10205050       6.17588360       3.88551676       0.00002463      -0.00001967      -0.00000001
H        9.48112806      11.59503978       1.60431344       0.00007704      -0.00000096      -0.00003436
H        6.56311258       6.08236243       3.88979470       0.00000042      -0.00003240      -0.00002292
H       11.02006611      11.68865655       1.60014993      -0.00004474      -0.00002445      -0.00006514
H        6.07515062       8.09283677       4.27044793      -0.00002940       0.00000487      -0.00002739
H       11.50811855       9.67815414       1.21942960      -0.00003693       0.00000316      -0.00002343
O        7.30072875       7.37787408       1.26451466      -0.00001714       0.00001144       0.00001641
O       10.28250725      10.39301408       4.22530802       0.00000840       0.00000901       0.00001271
O        7.27084740       9.00785241       3.39610071       0.00004913       0.00000964       0.00001030
O       10.31227393       8.76308928       2.09365401       0.00001506       0.00000071       0.00002424
O        7.29105921      11.67838657       3.41751120       0.00001517       0.00006672      -0.00003861
O       10.29206790       6.09254598       2.07240964       0.00003118       0.00001537      -0.00003744
O       11.63958535       7.32761433       4.77034713      -0.00002300       0.00000431      -0.00001359
O        5.94365732      10.44339532       0.71954117       0.00000922      -0.00001922      -0.00001067
O        8.96917889       7.38253099       4.75098824      -0.00004992      -0.00002226       0.00000636
O        8.61409517      10.38850589       0.73874155      -0.00003839      -0.00003391       0.00003519
H        8.56393969       7.36971452       5.65773631       0.00000533       0.00001189       0.00002712
H        9.04565508      10.31732632      11.13715268      -0.00004642       0.00000848       0.00003997
H        6.13084391       7.35564644       5.65875768      -0.00001576      -0.00000320      -0.00000886
H       11.47870054      10.33139058      11.13629046      -0.00000662      -0.00001876       0.00000653
H        7.28380982       8.08254608       7.58512479       0.00001455       0.00003274      -0.00004774
H       10.32565597       9.60435730       9.20989989       0.00002526      -0.00003150      -0.00001444
H        7.32416548       6.53731508       7.50887284      -0.00002583       0.00004346       0.00002081
H       10.28533627      11.14958306       9.28605796      -0.00000979       0.00008434       0.00004186
H        7.33499755       9.96732745       9.07530142       0.00004337       0.00002830       0.00001997
H       10.27435655       7.71966632       7.71962541       0.00006238      -0.00000635       0.00005104
H        9.98164705       7.33342244      10.48358060      -0.00004560      -0.00001319       0.00001398
H        7.62792776      10.35364573       6.31131338      -0.00002773      -0.00001394       0.00001445
H        8.06656630       8.58923154       9.53376058       0.00001577      -0.00002075       0.00003980
H        9.54290747       9.09780750       7.26110089      -0.00000197       0.00001676       0.00003892
H        8.11520029       6.13390490       9.53809947      -0.00001152       0.00000350      -0.00002731
H        9.49428469      11.55306339       7.25688822      -0.00004939       0.00000869       0.00000883
H        6.57625912       6.04038256       9.54237656       0.00003855       0.00000379      -0.00004401
H       11.03320620      11.64668015       7.25272602       0.00007960      -0.00000730      -0.00003264
H        6.08829676       8.05086346       9.92302760      -0.00000780      -0.00002872      -0.00002331
H       11.52126670       9.63617809       6.87200423      -0.00002433      -0.00001494       0.00004124
O        7.31387589       7.33589740       6.91709570      -0.00000626       0.00001308      -0.00001614
O       10.29565545      10.35103746       9.87789072       0.00000832       0.00001122      -0.00004491
O        7.28399863       8.96587527       9.04867540       0.00002757       0.00002177       0.00004894
O       10.32542009       8.72111301       7.74623789       0.00003263       0.00000097      -0.00001889
O        7.30420674      11.63641863       9.07008796       0.00002293      -0.00004755      -0.00003264
O       10.30521657       6.05056905       7.72499216       0.00002848       0.00000162      -0.00006795
O       11.65273148       7.28564093      10.42292757      -0.00001084      -0.00002352      -0.00002457
O        5.95681039      10.40141635       6.37211888      -0.00004378       0.00000091       0.00000004
O        8.98232659       7.34055608      10.40356628      -0.00004144      -0.00003427       0.00001696
O        8.62724323      10.34652759       6.39132137      -0.00003223      -0.00001708       0.00002854
