84
Lattice="8.722397 0.0 -3.120889 0.0 7.490364 0.0 0.0 0.0 10.321753" Properties=species:S:1:pos:R:3:forces:R:3 energy=-417.80633765333295 pbc="T T T"
H        2.99439675       4.82359617       2.04004489      -0.00004227      -0.00000792      -0.00002265
H        2.15991750       3.67911319       2.69783050       0.00008322       0.00004364      -0.00002108
H        1.07527217       5.34929446       1.28605736      -0.00003806       0.00003890       0.00000134
H        4.11672565       6.82548548       2.13785084      -0.00005238       0.00000724       0.00002606
H        4.96471978       5.60934722       2.78989449      -0.00000796       0.00005966      -0.00000484
H       -0.33832157       5.61418337       0.65585630      -0.00002236      -0.00000396       0.00000795
H        2.01146585       3.37478147       0.26501079      -0.00003462      -0.00006178       0.00000160
H        2.72001062       3.67094291       5.00063143       0.00001040      -0.00000151      -0.00002367
H        1.54237084       2.66965013       4.79202843      -0.00001294      -0.00001585      -0.00002698
H        2.58410994       2.72105638      -1.08533781      -0.00001120       0.00001907       0.00001002
H        0.72137990       0.08914222       1.77202715       0.00006746       0.00003246       0.00000552
H        2.78616359       1.03182571       1.57152848       0.00002340      -0.00002738       0.00001209
H        3.34816612       0.36690841       0.28171240      -0.00000001      -0.00000131      -0.00000078
H        0.42540423       1.53091891       2.43164026      -0.00000808      -0.00002733      -0.00006012
H        1.36680226       1.07841465       6.72126349       0.00003826      -0.00001165       0.00002147
H        2.20128172      -0.06606827       6.06347761      -0.00008873       0.00003941       0.00002214
H        3.28592648       1.60411282       7.47525050       0.00003693       0.00003592       0.00000173
H        0.24447314       3.08030332       6.62345759       0.00005020       0.00000843      -0.00002760
H       -0.60352141       1.86416509       5.97141398       0.00000900       0.00006067       0.00000298
H        4.69952011       1.86900152       8.10545176       0.00002202      -0.00000527      -0.00000634
H        2.34973271       7.11996372       8.49629757       0.00003412      -0.00006375      -0.00000240
H        1.64118868       7.41612590       3.76067718      -0.00001651      -0.00000918       0.00002089
H        2.81882806       6.41483288       3.96928024       0.00000992      -0.00002167       0.00002362
H        1.77708851       6.46623853       9.84664597       0.00001152       0.00001806      -0.00000923
H        3.63981867       3.83432422       6.98928048      -0.00006799       0.00003235      -0.00000064
H        1.57503496       4.77700733       7.18977959      -0.00002383      -0.00002457      -0.00001070
H        1.01303232       4.11209002       8.47959562       0.00000040       0.00000162       0.00000254
H        3.93579452       5.27610076       6.32966801       0.00000621      -0.00002631       0.00006018
H        5.72800064       2.66676767       5.16081899       0.00003927       0.00001065       0.00002163
H        6.56248007       3.81125056       4.50303316      -0.00008752      -0.00004027       0.00002174
H        7.64712497       2.14106942       5.91480607       0.00003707      -0.00003651       0.00000122
H        4.60567170       0.66487879       5.06301308       0.00004962      -0.00000798      -0.00002743
H        3.75767718       1.88101716       4.41096947       0.00000829      -0.00006128       0.00000301
H        9.06071860       1.87618066       6.54500731       0.00002217       0.00000516      -0.00000663
H        6.71093124       4.11558250       6.93585307       0.00003394       0.00006344      -0.00000248
H        6.00238698       3.81942053       2.20023262      -0.00001502       0.00000719       0.00002140
H        7.18002647       4.82071343       2.40883566       0.00001064       0.00002054       0.00002422
H        6.13828701       4.76930763       8.28620151       0.00001162      -0.00001796      -0.00000957
H        8.00101719       7.40122192       5.42883610      -0.00006801      -0.00003216      -0.00000157
H        5.93623344       6.45853887       5.62933508      -0.00002359       0.00002459      -0.00001057
H        5.37423081       7.12345619       6.91915114       0.00000047      -0.00000188       0.00000250
H        8.29699297       5.95944538       4.76922353       0.00000647       0.00002647       0.00005990
H        7.35559504       6.41194982       0.47960043      -0.00004074       0.00000940      -0.00002282
H        6.52111578       7.55643284       1.13738609       0.00008479      -0.00004251      -0.00002168
H        5.43647058       5.88625160      -0.27438697      -0.00003753      -0.00003787       0.00000005
H        8.47792426       4.41006077       0.57740635      -0.00005315      -0.00000774       0.00002602
H        9.32591843       5.62619881       1.22945008      -0.00000908      -0.00005857      -0.00000531
H        4.02287687       5.62136278      -0.90458813      -0.00002201       0.00000432       0.00000731
H        6.37266438       0.37040067      -1.29543370      -0.00003489       0.00006204       0.00000162
H        7.08120896       0.07423908       3.44018684       0.00001147       0.00000290      -0.00002305
H        5.90356924       1.07553191       3.23158387      -0.00001233       0.00001684      -0.00002633
H        6.94530845       1.02412572      -2.64578226      -0.00001128      -0.00001876       0.00000967
H        5.08257837       3.65604003       0.21158285       0.00006750      -0.00003287       0.00000395
H        7.14736202       2.71335656       0.01108397       0.00002381       0.00002696       0.00001206
H        7.70936463       3.37827376      -1.27873209       0.00000006       0.00000148      -0.00000093
H        4.78660268       2.21426332       0.87119584      -0.00000764       0.00002706      -0.00006075
O        2.24672562       4.18677258       1.84489879       0.00001389       0.00002868       0.00003510
O        4.05700016       6.00953907       2.70022937       0.00004557       0.00004665       0.00002071
O        0.54275143       6.04922858       0.81214595      -0.00004381      -0.00006037       0.00000475
O        2.36581580       3.00308878       4.34624670      -0.00001726       0.00001149       0.00007737
O        1.75260565       3.00448501      -0.62149381       0.00004034      -0.00003907       0.00003106
O        3.64474522       0.81724807       1.12009140      -0.00005179      -0.00003269      -0.00003066
O        1.10734674       0.81240681       2.33579845      -0.00002228       0.00003382      -0.00003442
O        2.11447198       0.44158962       6.91641000      -0.00000693       0.00003610      -0.00003937
O        0.30419810       2.26435734       6.06107836      -0.00004374       0.00004447      -0.00001685
O        3.81844681       2.30404644       7.94916293       0.00004579      -0.00005942      -0.00000943
O        1.99538126       6.74826904       4.41506039       0.00002855       0.00002493      -0.00006839
O        2.60859292       6.74966666       9.38280187      -0.00004090      -0.00003630      -0.00002960
O        0.71645329       4.56243084       7.64121722       0.00005167      -0.00003882       0.00002775
O        3.25385132       4.55758930       6.42551036       0.00002572       0.00002992       0.00003022
O        6.47567068       3.30359232       5.35596539      -0.00000837      -0.00003428      -0.00003852
O        4.66539663       1.48082484       4.50063393      -0.00004391      -0.00004445      -0.00001719
O        8.17964536       1.44113570       6.38871833       0.00004552       0.00005957      -0.00000863
O        6.35658005       4.48727675       2.85461618       0.00002632      -0.00002202      -0.00007058
O        6.96979142       4.48587950       7.82235739      -0.00004077       0.00003642      -0.00002981
O        5.07765179       6.67311528       6.08077277       0.00005177       0.00003927       0.00002745
O        7.61504990       6.67795699       4.86506572       0.00002504      -0.00003079       0.00003128
O        6.60792442       7.04877397       0.28445414       0.00001157      -0.00003155       0.00003636
O        8.41819869       5.22600719       1.13978484       0.00004542      -0.00004723       0.00002103
O        4.90395000       5.18631769      -0.74829885      -0.00004451       0.00005975       0.00000689
O        6.72701451       0.74209371       2.78580242      -0.00001903      -0.00001382       0.00007571
O        6.11380413       0.74069719      -2.18193827       0.00004051       0.00003877       0.00003087
O        8.00594369       2.92793413      -0.44035307      -0.00005158       0.00003267      -0.00003085
O        5.46854538       2.93277520       0.77535369      -0.00002337      -0.00003236      -0.00003251
