30
Lattice="5.999720791610131 -0.0497800632290426 -0.0009793094059577642 -0.04151016725103738 5.991191454424063 -0.032437569679340805 -0.0017541577939077944 -0.023754325894920613 5.653125825701465" Properties=species:S:1:pos:R:3:forces:R:3 energy=-149.14192683307954 stress="-3.6778023279442074e-06 3.9474150156486625e-07 -4.895493064592959e-06 3.9474150156486625e-07 9.453960349882495e-07 1.6018949421477763e-06 -4.895493064592959e-06 1.6018949421477763e-06 -2.2774014881397908e-07" pbc="T T T"
H        1.45680659       2.20062970       1.99580398       0.00002648       0.00003876       0.00000208
H        1.49207026       0.65504562       1.92468283      -0.00002701      -0.00001703      -0.00000759
H        1.51066625       4.08997430       3.48015191       0.00001023       0.00002461      -0.00003349
H        4.14421313       1.45142359       4.90421347       0.00006717       0.00001412      -0.00003600
H        2.23621377       2.71086130       3.94509923       0.00003733      -0.00002635      -0.00005884
H        2.23483974       6.24667575       3.92491156      -0.00000379       0.00001655       0.00007978
H        0.69561127       6.15834173       3.92532779       0.00003632       0.00003604       0.00000023
H        6.25494369       2.13082260       4.32983359       0.00002260      -0.00000589       0.00000368
H        2.73741994       1.45333441       5.72715319       0.00007593      -0.00001230       0.00001098
H        6.30433290       1.39795555       5.72068915      -0.00000427      -0.00001428      -0.00002076
H        3.21903678       4.46432164      -0.10744436      -0.00008556       0.00001507      -0.00000606
H       -0.34787978       4.51970497      -0.10097446       0.00002174       0.00000473      -0.00001080
H        4.49965201       3.71702868       3.62390584      -0.00003991      -0.00002953      -0.00000657
H        4.46438938       5.26261470       3.69503352       0.00000832      -0.00001511      -0.00002229
H        4.44578409       1.82767858       2.13956891       0.00000657       0.00001342      -0.00002878
H        1.81224287       4.46621301       0.71549724      -0.00005057       0.00007756       0.00003427
H        3.72023913       3.20679737       1.67461709      -0.00001859      -0.00000296       0.00003453
H        3.72161993      -0.32901716       1.69479323      -0.00006791      -0.00001639      -0.00004003
H        5.26084010      -0.24068926       1.69437676       0.00004273       0.00000024       0.00003658
H       -0.29848636       3.78684198       1.28987919      -0.00002117      -0.00003819      -0.00000433
O        1.48556384       5.75913030       3.46927009       0.00002879      -0.00001713       0.00000169
O        5.81526115       1.39759933       4.84821206      -0.00003018      -0.00001559      -0.00002330
O        1.48599192       1.45172078       1.33028230       0.00000865       0.00000653      -0.00000807
O        1.45628699       3.08862302       3.45664144      -0.00001476      -0.00000942       0.00000605
O        3.14514792       1.46180564       4.82145960       0.00003666      -0.00005034      -0.00001891
O        4.47045677       4.46593542       4.28942881       0.00003458      -0.00000517       0.00001583
O        4.50017696       2.82903046       2.16305301      -0.00001201       0.00003880       0.00007959
O        2.81130915       4.45587130       0.79824961      -0.00003470      -0.00003362       0.00002791
O        0.14120258       4.52005772       0.77149583      -0.00002064       0.00001826       0.00003769
O        4.47089404       0.15852287       2.15044439      -0.00003301       0.00000463      -0.00004510
