3
Properties=species:S:1:pos:R:3:forces:R:3 energy=-14.276045723406574 stress="inf inf -inf inf inf -inf -inf -inf inf" free_energy=-14.276045723406574 pbc="F F F"
H        0.00000000      -0.06508486      -0.34816329       0.00000000       0.00000083       0.00000060
O        0.00000000       0.71673497       0.22555862      -0.00000000      -0.00000235       0.00000313
H       -0.00000000       0.34834989       1.12260467       0.00000000       0.00000153      -0.00000372
