6
Lattice="103.79383120068373 0.0 0.0 0.0 105.19910255209942 0.0 0.0 0.0 102.97463121159657" Properties=species:S:1:pos:R:3:forces:R:3 #=T CELL(abcABC):=T 200.00000=T 90.00000=T Step:=T 67=T Bead:=T 0=T positionsangstrom=T cellatomic_unit=T energy=-937.0127611052774 stress="5.978818883061657e-08 1.0042478836706038e-07 5.6821970754013865e-09 1.0042478836706038e-07 2.087036889462831e-07 4.0440612778138675e-08 5.6821970754013865e-09 4.0440612778138675e-08 -1.7893440317848738e-08" free_energy=-937.0127611052774 pbc="F F F"
O       50.91854067      50.47477695      50.72031161       0.05654016       0.07862327       0.05908225
H       49.99297751      50.57394427      50.49950415      -0.00521292      -0.01759552      -0.02460180
H       51.31607079      49.99599183      49.99368905      -0.02284125      -0.01003894      -0.01808529
O       53.49783497      55.20356014      52.08047628      -0.02567801      -0.05803191      -0.00117902
H       53.79715396      55.10277926      52.98365432       0.01250314       0.01270644       0.01835232
H       53.05620871      54.37871620      51.86389431      -0.01531113      -0.00566334      -0.03356845
