6
Lattice="102.500081 0.0 0.0 0.0 102.83274 0.0 0.0 0.0 102.286044" Properties=species:S:1:pos:R:3:forces:R:3 #=T CELL(abcABC):=T 200.00000=T 90.00000=T Step:=T 67=T Bead:=T 0=T positionsangstrom=T cellatomic_unit=T energy=-28.46404428415864 stress="1.1981918099075128e-14 7.628904307642224e-15 8.40639194760275e-16 7.628904307642224e-15 9.834721807590842e-15 6.994398786808212e-15 8.40639194760275e-16 6.994398786808212e-15 1.406391052196496e-14" free_energy=-28.46404428415864 pbc="F F F"
O       50.93007667      50.54807808      50.66802632       0.00002319      -0.00004323      -0.00004187
H       49.96849499      50.54123609      50.51812247       0.00000760       0.00001999       0.00000295
H       51.31835248      49.95309266      50.00289853      -0.00003137       0.00001685       0.00003831
O       52.21048430      52.84417092      51.39924366      -0.00005168      -0.00004061       0.00002088
H       52.51639496      52.74800978      52.31533627      -0.00001034      -0.00000811      -0.00003359
H       51.75373259      51.99609347      51.17214085       0.00006261       0.00005512       0.00001332
