3
Properties=species:S:1:pos:R:3:forces:R:3 energy=-14.159409311389583 stress="inf inf inf inf -inf -inf inf -inf inf" free_energy=-14.159409311389583 pbc="F F F"
H       -0.00000000      -0.05330095      -0.36016438       0.00000000      -0.01599222      -0.01448299
O       -0.00000000       0.71747857       0.23244754       0.00000000       0.00390555       0.03841764
H        0.00000000       0.33582238       1.12771684      -0.00000000       0.01208667      -0.02393465
