36
Lattice="6.656960910599371 -0.0054159858429433 -0.0020629616267001 -0.0055656138125629 6.559087831344341 -0.0421701683356358 0.0008280531233478 -0.0444073373963522 7.45202688107043" Properties=species:S:1:pos:R:3:forces:R:3 energy=-179.22539580495194 pbc="T T T"
H        1.61760621       2.28613169       1.31769513       0.00000604      -0.00000227       0.00000480
H        5.01634542       4.26232440       4.99972297       0.00000599      -0.00000800       0.00000040
H        0.93932663       4.87353698       3.10753838      -0.00002707       0.00004889       0.00001272
H        1.67199903       5.55576159       0.65516081       0.00004085       0.00004166       0.00002961
H        4.95312587       0.94005793       4.37186501      -0.00003470       0.00000540       0.00002484
H        4.25235155       4.90680946       2.55067931       0.00004382      -0.00001805      -0.00000296
H        2.45178008       5.98087450       6.80185677       0.00004956      -0.00000027       0.00001802
H        4.19724233       0.45704362       3.05808503       0.00000645      -0.00005477       0.00002853
H        2.84471489       0.83982958       4.94399136      -0.00002299      -0.00001601      -0.00000169
H        3.79091382       5.60741661       1.19417945       0.00004820      -0.00001988      -0.00003895
H        6.58582388       4.24755478       4.93983874       0.00003992      -0.00001217       0.00000040
H        0.93142941       3.30761760       3.11132671      -0.00002183      -0.00002674       0.00000258
H        5.72252186       3.23614928       6.80764648       0.00000465      -0.00002625       0.00003252
H        1.30402941       0.74803115       5.49399016      -0.00000286      -0.00002841       0.00000622
H        5.93010008       1.14779153       6.30977930      -0.00004038       0.00001921      -0.00001132
H        2.60433721       2.04782344       6.84706287       0.00001025       0.00003597      -0.00001681
H        2.67515651       3.58157168       7.40903631       0.00003768       0.00003049      -0.00006340
H        3.95395015       2.81770841       3.67954540      -0.00001589      -0.00000865      -0.00002462
H        0.62468488       0.40932534       1.99879208      -0.00000077      -0.00001502       0.00001251
H        2.84117213       3.93813746       3.88560461       0.00000763       0.00001332      -0.00000802
H        0.04684536       2.32755154       1.23691590       0.00000070       0.00007262       0.00000601
H        4.59108947       2.52992001       0.16658774      -0.00001630       0.00003456      -0.00002409
H        6.16119311       5.84214062       1.75727710       0.00001168      -0.00000169       0.00002904
H        6.01351152       6.18775536       5.67608827      -0.00001819      -0.00000948       0.00000240
O        0.79750031       2.12146723       1.87086628      -0.00001000      -0.00002521      -0.00000901
O        5.82291544       4.44655815       5.56215274       0.00002273       0.00000982      -0.00001830
O        1.11560172       4.09217514       3.71065991       0.00002858       0.00000678      -0.00004100
O        5.57166142       2.50042965      -0.03331673      -0.00001143      -0.00002512       0.00001973
O        2.47189161       5.35475164       0.08974693      -0.00001493      -0.00005144      -0.00002888
O        4.14083771       1.11203213       3.81249521      -0.00003866      -0.00003317       0.00001207
O        2.26584039       0.78268467       5.75734999      -0.00000850       0.00005438       0.00001820
O        4.45445180       5.67400779       1.93976747      -0.00000404       0.00001126       0.00001060
O        2.86037236       2.66924301       0.17478518      -0.00007171       0.00002407       0.00002236
O        3.82932452       3.80294337       3.80475768       0.00001327      -0.00000822       0.00002070
O        0.49129438       5.97962420       1.85943917       0.00002142      -0.00001714      -0.00002337
O        6.20670828       0.59173158       5.52540572      -0.00003917      -0.00000044      -0.00000185
