6
Lattice="8.500081 0.0 0.0 0.0 8.832740000000001 0.0 0.0 0.0 8.286044" Properties=species:S:1:pos:R:3:forces:R:3 #=T CELL(abcABC):=T 200.00000=T 90.00000=T Step:=T 67=T Bead:=T 0=T positionsangstrom=T cellatomic_unit=T energy=-937.9434292629987 stress="-1.7627917346033173e-07 -5.368331895743082e-08 -8.966902977272915e-08 -5.368331895743082e-08 1.282071099850143e-07 9.642233073061886e-08 -8.966902977272915e-08 9.642233073061886e-08 9.022584370963752e-08" free_energy=-937.9434292629987 pbc="F F F"
O        3.83817955       3.25849798       3.75718613      -0.00002022       0.00002025      -0.00000843
H        3.08421484       3.78376533       3.48228025      -0.00005501      -0.00005192      -0.00004747
H        4.39816284       3.21074357       2.97996525       0.00002912       0.00005179       0.00007028
O        5.11217476       5.69671800       4.31168887      -0.00005526       0.00001095      -0.00000180
H        5.51244427       5.87914815       5.15498739       0.00003896      -0.00002669      -0.00000732
H        4.75235973       4.80180798       4.38966021       0.00006241      -0.00000438      -0.00000526
