144
Lattice="6.1264588442625865 10.571277983368384 -0.040225338147170615 -6.092084928323713 10.591115615594463 -0.057933629560500355 -0.016725005114031355 0.053499344700484903 11.5460265416768" Properties=species:S:1:pos:R:3:forces:R:3 energy=-717.7644825808202 stress="3.5542800349511877e-07 -3.975505938160084e-07 2.0988470146899635e-07 -3.975505938160084e-07 -1.4466914082657094e-06 -5.463928048835554e-07 2.0988470146899635e-07 -5.463928048835554e-07 -3.273335666244617e-07" pbc="T T T"
H        2.40690741       5.56554080       1.06338820      -0.00002719       0.00003963      -0.00003579
H       -2.86741522       5.00327915       2.98276054      -0.00001261       0.00001813      -0.00000191
H        0.26023799       0.73269225       4.93147146      -0.00004205      -0.00003750      -0.00000314
H        1.98538477       4.05446735       1.47496798      -0.00002697      -0.00002360       0.00001482
H       -1.34724888       5.39707048       3.38831372       0.00001740       0.00001256      -0.00001437
H       -0.84016739       1.85555362       5.32988128       0.00000228       0.00002079      -0.00001753
H        0.73467353       5.70466502       2.46480821       0.00000264       0.00000286      -0.00001223
H        0.91398770       8.78272632       4.37518253      -0.00000885       0.00000385      -0.00003948
H       -1.82948589       7.38803901       0.52890371      -0.00003101      -0.00005545       0.00006086
H       -0.65330133       7.19294278       1.62792243       0.00000370      -0.00000449      -0.00003362
H        0.31751965       6.82977740       3.55539600       0.00002022       0.00001558      -0.00001843
H        0.15018805       7.86789347       5.47471448      -0.00000330       0.00000414       0.00003186
O       -0.07385627       1.30805405       5.69044356       0.00003357       0.00002668       0.00001709
O        2.07703523       4.99478718       1.82766595       0.00006243       0.00000514       0.00002344
O       -2.20678409       5.00926067       3.74580037       0.00000964      -0.00002771       0.00001812
O       -0.04462450       6.22969438       2.83014963      -0.00003425      -0.00000983       0.00000545
O        0.84961244       7.84834952       4.74831851       0.00002903      -0.00001370       0.00002670
O       -0.98739990       7.80246753       0.89710794       0.00000533       0.00002295      -0.00002185
H        2.39854491       5.59229047       6.83640147      -0.00002719       0.00003963      -0.00003579
H       -2.87577773       5.03002883       8.75577381      -0.00001261       0.00001813      -0.00000191
H        0.25187548       0.75944192      10.70448473      -0.00004205      -0.00003750      -0.00000314
H        1.97702227       4.08121702       7.24798125      -0.00002697      -0.00002360       0.00001482
H       -1.35561139       5.42382015       9.16132699       0.00001740       0.00001256      -0.00001437
H       -0.84852989       1.88230329      11.10289455       0.00000228       0.00002079      -0.00001753
H        0.72631102       5.73141470       8.23782148       0.00000264       0.00000286      -0.00001223
H        0.90562520       8.80947599      10.14819581      -0.00000885       0.00000385      -0.00003948
H       -1.83784839       7.41478868       6.30191698      -0.00003101      -0.00005545       0.00006086
H       -0.66166383       7.21969246       7.40093570       0.00000370      -0.00000449      -0.00003362
H        0.30915715       6.85652708       9.32840927       0.00002022       0.00001558      -0.00001843
H        0.14182555       7.89464314      11.24772775      -0.00000330       0.00000414       0.00003186
O       -0.08221877       1.33480372      11.46345683       0.00003357       0.00002668       0.00001709
O        2.06867273       5.02153685       7.60067922       0.00006243       0.00000514       0.00002344
O       -2.21514659       5.03601034       9.51881364       0.00000964      -0.00002771       0.00001812
O       -0.05298700       6.25644405       8.60316290      -0.00003425      -0.00000983       0.00000545
O        0.84124994       7.87509919      10.52133178       0.00002903      -0.00001370       0.00002670
O       -0.99576240       7.82921721       6.67012122       0.00000533       0.00002295      -0.00002185
H       -0.63913506      10.86109861       1.03442138      -0.00002719       0.00003963      -0.00003579
H       -5.91345769      10.29883696       2.95379372      -0.00001261       0.00001813      -0.00000191
H       -2.78580448       6.02825005       4.90250465      -0.00004205      -0.00003750      -0.00000314
H       -1.06065769       9.35002516       1.44600116      -0.00002697      -0.00002360       0.00001482
H       -4.39329135      10.69262829       3.35934690       0.00001740       0.00001256      -0.00001437
H       -3.88620985       7.15111142       5.30091447       0.00000228       0.00002079      -0.00001753
H       -2.31136894      11.00022283       2.43584140       0.00000264       0.00000286      -0.00001223
H       -2.13205477      14.07828413       4.34621572      -0.00000885       0.00000385      -0.00003948
H       -4.87552835      12.68359682       0.49993689      -0.00003101      -0.00005545       0.00006086
H       -3.69934379      12.48850059       1.59895562       0.00000370      -0.00000449      -0.00003362
H       -2.72852281      12.12533521       3.52642918       0.00002022       0.00001558      -0.00001843
H       -2.89585441      13.16345127       5.44574767      -0.00000330       0.00000414       0.00003186
O       -3.11989873       6.60361186       5.66147675       0.00003357       0.00002668       0.00001709
O       -0.96900723      10.29034499       1.79869913       0.00006243       0.00000514       0.00002344
O       -5.25282656      10.30481847       3.71683355       0.00000964      -0.00002771       0.00001812
O       -3.09066696      11.52525219       2.80118281      -0.00003425      -0.00000983       0.00000545
O       -2.19643003      13.14390733       4.71935169       0.00002903      -0.00001370       0.00002670
O       -4.03344236      13.09802534       0.86814113       0.00000533       0.00002295      -0.00002185
H       -0.64749756      10.88784828       6.80743466      -0.00002719       0.00003963      -0.00003579
H       -5.92182019      10.32558663       8.72680699      -0.00001261       0.00001813      -0.00000191
H       -2.79416698       6.05499973      10.67551792      -0.00004205      -0.00003750      -0.00000314
H       -1.06902020       9.37677483       7.21901443      -0.00002697      -0.00002360       0.00001482
H       -4.40165385      10.71937796       9.13236017       0.00001740       0.00001256      -0.00001437
H       -3.89457236       7.17786110      11.07392774       0.00000228       0.00002079      -0.00001753
H       -2.31973144      11.02697250       8.20885467       0.00000264       0.00000286      -0.00001223
H       -2.14041727      14.10503380      10.11922899      -0.00000885       0.00000385      -0.00003948
H       -4.88389085      12.71034649       6.27295016      -0.00003101      -0.00005545       0.00006086
H       -3.70770630      12.51525026       7.37196889       0.00000370      -0.00000449      -0.00003362
H       -2.73688532      12.15208488       9.29944245       0.00002022       0.00001558      -0.00001843
H       -2.90421691      13.19020095      11.21876094      -0.00000330       0.00000414       0.00003186
O       -3.12826123       6.63036153      11.43449002       0.00003357       0.00002668       0.00001709
O       -0.97736974      10.31709466       7.57171241       0.00006243       0.00000514       0.00002344
O       -5.26118906      10.33156815       9.48984682       0.00000964      -0.00002771       0.00001812
O       -3.09902947      11.55200186       8.57419608      -0.00003425      -0.00000983       0.00000546
O       -2.20479253      13.17065700      10.49236496       0.00002903      -0.00001370       0.00002670
O       -4.04180486      13.12477501       6.64115440       0.00000533       0.00002295      -0.00002185
H        5.47013683      10.85117979       1.04327553      -0.00002719       0.00003963      -0.00003579
H        0.19581420      10.28891815       2.96264787      -0.00001261       0.00001813      -0.00000191
H        3.32346741       6.01833124       4.91135879      -0.00004205      -0.00003750      -0.00000314
H        5.04861419       9.34010634       1.45485531      -0.00002697      -0.00002360       0.00001482
H        1.71598054      10.68270947       3.36820105       0.00001740       0.00001256      -0.00001437
H        2.22306203       7.14119261       5.30976861       0.00000228       0.00002079      -0.00001753
H        3.79790295      10.99030402       2.44469554       0.00000264       0.00000286      -0.00001223
H        3.97721712      14.06836531       4.35506987      -0.00000885       0.00000385      -0.00003948
H        1.23374353      12.67367800       0.50879104      -0.00003101      -0.00005545       0.00006086
H        2.40992809      12.47858178       1.60780976       0.00000370      -0.00000449      -0.00003362
H        3.38074907      12.11541639       3.53528333       0.00002022       0.00001558      -0.00001843
H        3.21341748      13.15353246       5.45460181      -0.00000330       0.00000414       0.00003186
O        2.98937316       6.59369304       5.67033089       0.00003357       0.00002668       0.00001709
O        5.14026465      10.28042617       1.80755328       0.00006243       0.00000514       0.00002344
O        0.85644533      10.29489966       3.72568770       0.00000964      -0.00002771       0.00001812
O        3.01860492      11.51533337       2.81003696      -0.00003425      -0.00000983       0.00000545
O        3.91284186      13.13398851       4.72820584       0.00002903      -0.00001370       0.00002670
O        2.07582953      13.08810653       0.87699528       0.00000533       0.00002295      -0.00002185
H        5.46177433      10.87792946       6.81628880      -0.00002719       0.00003963      -0.00003579
H        0.18745170      10.31566782       8.73566114      -0.00001261       0.00001813      -0.00000191
H        3.31510490       6.04508091      10.68437207      -0.00004205      -0.00003750      -0.00000314
H        5.04025169       9.36685601       7.22786858      -0.00002697      -0.00002360       0.00001482
H        1.70761803      10.70945914       9.14121432       0.00001740       0.00001256      -0.00001437
H        2.21469953       7.16794228      11.08278189       0.00000228       0.00002079      -0.00001753
H        3.78954045      11.01705369       8.21770881       0.00000264       0.00000286      -0.00001223
H        3.96885462      14.09511498      10.12808314      -0.00000885       0.00000385      -0.00003948
H        1.22538103      12.70042767       6.28180431      -0.00003101      -0.00005545       0.00006086
H        2.40156559      12.50533145       7.38082303       0.00000370      -0.00000449      -0.00003362
H        3.37238657      12.14216607       9.30829660       0.00002022       0.00001558      -0.00001843
H        3.20505497      13.18028213      11.22761508      -0.00000330       0.00000414       0.00003186
O        2.98101065       6.62044271      11.44334416       0.00003357       0.00002668       0.00001709
O        5.13190215      10.30717584       7.58056655       0.00006243       0.00000514       0.00002344
O        0.84808283      10.32164933       9.49870097       0.00000964      -0.00002771       0.00001812
O        3.01024242      11.54208305       8.58305023      -0.00003425      -0.00000983       0.00000546
O        3.90447936      13.16073818      10.50121911       0.00002903      -0.00001370       0.00002670
O        2.06746702      13.11485620       6.65000855       0.00000533       0.00002295      -0.00002185
H        2.42409437      16.14673760       1.01430872      -0.00002719       0.00003963      -0.00003579
H       -2.85022827      15.58447595       2.93368105      -0.00001261       0.00001813      -0.00000191
H        0.27742494      11.31388905       4.88239198      -0.00004205      -0.00003750      -0.00000314
H        2.00257173      14.63566415       1.42588849      -0.00002697      -0.00002360       0.00001482
H       -1.33006193      15.97826728       3.33923423       0.00001740       0.00001256      -0.00001437
H       -0.82298043      12.43675042       5.28080180       0.00000228       0.00002079      -0.00001753
H        0.75186048      16.28586182       2.41572873       0.00000264       0.00000286      -0.00001223
H        0.93117466      19.36392312       4.32610305      -0.00000885       0.00000385      -0.00003948
H       -1.81229893      17.96923581       0.47982422      -0.00003101      -0.00005545       0.00006086
H       -0.63611437      17.77413958       1.57884295       0.00000370      -0.00000449      -0.00003362
H        0.33470661      17.41097420       3.50631651       0.00002022       0.00001558      -0.00001843
H        0.16737501      18.44909026       5.42563500      -0.00000330       0.00000414       0.00003186
O       -0.05666931      11.88925085       5.64136408       0.00003357       0.00002668       0.00001709
O        2.09422219      15.57598398       1.77858647       0.00006243       0.00000514       0.00002344
O       -2.18959713      15.59045747       3.69672088       0.00000964      -0.00002771       0.00001812
O       -0.02743754      16.81089118       2.78107014      -0.00003425      -0.00000983       0.00000545
O        0.86679940      18.42954632       4.69923902       0.00002903      -0.00001370       0.00002670
O       -0.97021294      18.38366433       0.84802846       0.00000533       0.00002295      -0.00002185
H        2.41573186      16.17348727       6.78732199      -0.00002719       0.00003963      -0.00003579
H       -2.85859077      15.61122563       8.70669432      -0.00001261       0.00001813      -0.00000191
H        0.26906244      11.34063872      10.65540525      -0.00004205      -0.00003750      -0.00000314
H        1.99420923      14.66241382       7.19890176      -0.00002697      -0.00002360       0.00001482
H       -1.33842443      16.00501695       9.11224750       0.00001740       0.00001256      -0.00001437
H       -0.83134293      12.46350009      11.05381507       0.00000228       0.00002079      -0.00001753
H        0.74349798      16.31261150       8.18874200       0.00000264       0.00000286      -0.00001223
H        0.92281215      19.39067279      10.09911632      -0.00000885       0.00000385      -0.00003948
H       -1.82066143      17.99598548       6.25283750      -0.00003101      -0.00005545       0.00006086
H       -0.64447687      17.80088926       7.35185622       0.00000370      -0.00000449      -0.00003362
H        0.32634411      17.43772387       9.27932978       0.00002022       0.00001558      -0.00001843
H        0.15901251      18.47583994      11.19864827      -0.00000330       0.00000414       0.00003186
O       -0.06503181      11.91600052      11.41437735       0.00003357       0.00002668       0.00001709
O        2.08585968      15.60273365       7.55159974       0.00006243       0.00000514       0.00002344
O       -2.19795964      15.61720714       9.46973415       0.00000964      -0.00002771       0.00001812
O       -0.03580004      16.83764085       8.55408341      -0.00003425      -0.00000983       0.00000546
O        0.85843689      18.45629599      10.47225229       0.00002903      -0.00001370       0.00002670
O       -0.97857544      18.41041401       6.62104173       0.00000533       0.00002295      -0.00002185
