36
Lattice="7.655507567526744 8.47940689980492e-06 -1.399173880992413e-07 3.8277606285771073 6.629877202859791 -3.7318634117221687e-07 -1.3554531633412937e-07 -3.3731480589518503e-07 7.236141771059518" Properties=species:S:1:pos:R:3:masses:R:1:forces:R:3 energy=-178.57269875574116 stress="-0.003120781783465628 8.759857583278213e-08 -8.134360686267378e-09 8.759857583278213e-08 -0.003120672358132732 -1.575558316825091e-08 -8.134360686267378e-09 -1.575558316825091e-08 -0.00312075140060006" free_energy=-178.57269875574116 pbc="T T T"
H        1.28442350       2.22477650       1.44672808       2.01410178      -0.00000154       0.00000071      -0.00000090
H        5.08642468      -0.00004390       1.44673855       2.01410178      -0.00000069      -0.00000134      -0.00000107
H        5.11217787       4.40500296       1.44673817       2.01410178       0.00000126       0.00000065      -0.00000142
H        6.39668877       6.62982717       5.06480623       2.01410178      -0.00000464       0.00000575      -0.00000184
H       10.19867653       4.40500639       5.06480784       2.01410178       0.00000247       0.00000097      -0.00000064
H        6.37091574       2.22479175       5.06480626       2.01410178       0.00000526      -0.00000296      -0.00000216
H        4.16574647      -0.00005561       0.14477475       2.01410178      -0.00000259       0.00000574      -0.00000011
H        1.74476452       3.02210429       0.14476434       2.01410178      -0.00000076      -0.00000079       0.00000314
H        5.57251409       3.60766435       0.14477709       2.01410178       0.00000509       0.00000039      -0.00000025
H        7.31736517       6.62983770       3.76284195       2.01410178      -0.00000389       0.00000049      -0.00000407
H        9.73833750       3.60768209       3.76284019       2.01410178       0.00000123       0.00000162       0.00000200
H        5.91057936       3.02212822       3.76284470       2.01410178       0.00000365      -0.00000280      -0.00000425
H        5.90505212       5.83170802       7.12370741       2.01410178      -0.00000022       0.00000218       0.00000208
H        5.90505464       7.42793014       7.12370640       2.01410178      -0.00000109       0.00000235       0.00000213
H        9.75331558       5.22982377       7.12371247       2.01410178      -0.00000502       0.00000662       0.00000219
H        7.30792333       2.19806623       7.12370393       2.01410178       0.00000190      -0.00000007       0.00000332
H        5.92555567       1.39995281       7.12370767       2.01410178       0.00000154       0.00000132       0.00000002
H        1.72978682       1.39996202       3.50563918       2.01410178      -0.00000226       0.00000159      -0.00000008
H        9.40581433       7.42795774       3.50564068       2.01410178       0.00000193      -0.00000807      -0.00000371
H        9.40581543       5.83173324       3.50564425       2.01410178       0.00000243       0.00000296      -0.00000273
H        4.17517489       4.43172633       3.50564175       2.01410178       0.00000197       0.00000406      -0.00000169
H        5.55754640       5.22983784       3.50564093       2.01410178      -0.00000749      -0.00000273      -0.00000592
H        0.34741816       2.19807312       3.50563671       2.01410178       0.00000303      -0.00000100      -0.00000135
H       11.13568318       4.43171329       7.12371002       2.01410178       0.00000781      -0.00000119       0.00000090
O        1.26933928       2.19864359       0.44952741      15.99900000      -0.00000106      -0.00000330       0.00000334
O        5.11659686      -0.00005054       0.44953746      15.99900000      -0.00000424       0.00000275       0.00000104
O        5.09709212       4.43112782       0.44953697      15.99900000       0.00000310      -0.00000248       0.00000083
O        6.36651465       6.62983481       4.06760530      15.99900000       0.00000269       0.00000189       0.00000186
O        6.38600335       2.19866576       4.06760523      15.99900000       0.00000152       0.00000338       0.00000167
O        6.39444311       6.62981822       6.77785588      15.99900000      -0.00000506       0.00000083       0.00000573
O        6.37204296       2.22283341       6.77785599      15.99900000       0.00000278      -0.00000242       0.00000658
O        1.28329683       2.22283942       3.15978393      15.99900000      -0.00000123      -0.00000321       0.00000065
O        8.91642857       6.62984413       3.15978861      15.99900000       0.00000014      -0.00000186      -0.00000014
O        5.11105355       4.40696009       3.15978864      15.99900000      -0.00000109      -0.00000253       0.00000105
O       10.21376205       4.43114155       4.06760688      15.99900000      -0.00000251      -0.00000284      -0.00000268
O       10.19980455       4.40694579       6.77785714      15.99900000      -0.00000442      -0.00000667      -0.00000352
