36
Lattice="7.129183054838273 -3.040705385362062e-21 1.166907274353683e-29 3.56459106316423 6.174053085332469 3.188114073426721e-14 6.987101303461472e-18 2.836237345533736e-14 6.717364906305035" Properties=species:S:1:pos:R:3 energy=-178.05425348322757 pbc="T T T"
H        1.19658105       2.07274882       1.36493599
H        4.73589336       0.00005622       1.36469156
H        4.76129778       4.10152586       1.36463409
H        5.95626027       6.17328378       4.72578898
H        9.49769132       4.10234352       4.72158361
H        5.93251565       2.07085607       4.72571908
H        3.83652618      -0.00013014       0.11328441
H        1.64644768       2.85186540       0.11161478
H        5.21075958       3.32251364       0.11322193
H        6.85701396       6.17438132       3.47411627
H        9.04707007       3.32191321       3.47083204
H        5.48315089       2.85152728       3.47404215
H        5.47868971       5.40228937       6.62028903
H        5.48051774       6.94769138       6.61886478
H        9.06690454       4.90133732       6.61764622
H        6.84105570       2.04606854       6.61879478
H        5.50363981       1.27175062       6.62028162
H        1.62586701       1.27134799       3.26003318
H        8.77875106       6.94694296       3.26058267
H        8.77801423       5.40188049       3.25755003
H        3.85375412       4.12894743       3.25749273
H        5.19141898       4.90215418       3.26059415
H        0.28795040       2.04378325       3.26001521
H       10.40498954       4.12881187       6.61763586
O        1.18956035       2.06057674       0.40672981
O        4.75069717      -0.00067740       0.40668292
O        4.75324794       4.11396025       0.40662513
O        5.94292563       6.17426667       3.76762042
O        5.94004781       2.05981979       3.76754988
O        5.94278427       6.17412469       6.29109097
O        5.93999482       2.05957705       6.29102229
O        1.18835465       2.05843985       2.93060491
O        8.31467771       6.17518296       2.93102741
O        4.75512116       4.11438495       2.93097116
O        9.50427362       4.11375543       3.76346680
O        9.50449185       4.11417730       6.28819406
36
Lattice="7.2125653127895974 -3.0762691910388112e-21 1.1805553126502173e-29 3.60628218671001 6.24626423252934 3.2254019573264485e-14 7.068821786542892e-18 2.8694097121481654e-14 6.795930577723807" Properties=species:S:1:pos:R:3 energy=-178.05425348322757 pbc="T T T"
H        1.21057615       2.09699150       1.38090016
H        4.79128393       0.00005688       1.38065287
H        4.81698547       4.14949693       1.38059472
H        6.02592413       6.24548593       4.78106137
H        9.60877543       4.15032415       4.77680681
H        6.00190180       2.09507661       4.78099065
H        3.88139783      -0.00013166       0.11460937
H        1.66570438       2.88522055       0.11292021
H        5.27170414       3.36137345       0.11454616
H        6.93721296       6.24659630       3.51474921
H        9.15288375       3.36076600       3.51142657
H        5.54728131       2.88487848       3.51467422
H        5.54276795       5.46547405       6.69771931
H        5.54461736       7.02895092       6.69627840
H        9.17295020       4.95866290       6.69504559
H        6.92106805       2.06999917       6.69620759
H        5.56800987       1.28662490       6.69771182
H        1.64488300       1.28621756       3.29816222
H        8.88142651       7.02819375       3.29871814
H        8.88068107       5.46506038       3.29565003
H        3.89882726       4.17723921       3.29559206
H        5.25213733       4.95948932       3.29872975
H        0.29131824       2.06768714       3.29814404
H       10.52668532       4.17710207       6.69503511
O        1.20347333       2.08467705       0.41148689
O        4.80626088      -0.00068532       0.41143944
O        4.80884149       4.16207674       0.41138097
O        6.01243354       6.24648032       3.81168615
O        6.00952206       2.08391125       3.81161480
O        6.01229052       6.24633667       6.36467098
O        6.00946845       2.08366567       6.36460149
O        1.20225354       2.08251517       2.96488099
O        8.41192540       6.24740732       2.96530843
O        4.81073661       4.16250641       2.96525152
O        9.61543471       4.16186952       3.80748395
O        9.61565550       4.16229633       6.36174019
36
Lattice="7.295947570740923 -3.1118329967155607e-21 1.1942033509467517e-29 3.6479733102557907 6.318475379726212 3.262689841226176e-14 7.150542269624313e-18 2.902582078762595e-14 6.87449624914258" Properties=species:S:1:pos:R:3 energy=-178.05425348322757 pbc="T T T"
H        1.22457125       2.12123417       1.39686432
H        4.84667449       0.00005754       1.39661417
H        4.87267316       4.19746799       1.39655535
H        6.09558799       6.31768808       4.83633375
H        9.71985954       4.19830477       4.83203001
H        6.07128795       2.11929715       4.83626222
H        3.92626949      -0.00013318       0.11593434
H        1.68496108       2.91857570       0.11422565
H        5.33264869       3.40023326       0.11587039
H        7.01741195       6.31881129       3.55538215
H        9.25869744       3.39961879       3.55202109
H        5.61141173       2.91822967       3.55530630
H        5.60684619       5.52865872       6.77514959
H        5.60871698       7.11021047       6.77369202
H        9.27899587       5.01598849       6.77244496
H        7.00108040       2.09392980       6.77362039
H        5.63237992       1.30149917       6.77514201
H        1.66389899       1.30108712       3.33629126
H        8.98410197       7.10944455       3.33685361
H        8.98334790       5.52824027       3.33375003
H        3.94390041       4.22553100       3.33369139
H        5.31285568       5.01682446       3.33686536
H        0.29468608       2.09159104       3.33627288
H       10.64838110       4.22539226       6.77243436
O        1.21738632       2.10877736       0.41624396
O        4.86182459      -0.00069325       0.41619597
O        4.86443503       4.21019324       0.41613682
O        6.08194144       6.31869396       3.85575189
O        6.07899630       2.10800271       3.85567971
O        6.08179677       6.31854866       6.43825100
O        6.07894207       2.10775429       6.43818070
O        1.21615242       2.10659049       2.99915707
O        8.50917309       6.31963169       2.99958945
O        4.86635207       4.21062787       2.99953189
O        9.72659581       4.20998362       3.85150111
O        9.72681914       4.21041537       6.43528632
36
Lattice="7.3793298286922475 -3.14739680239231e-21 1.207851389243286e-29 3.689664433801571 6.390686526923083 3.299977725125904e-14 7.232262752705733e-18 2.935754445377025e-14 6.953061920561352" Properties=species:S:1:pos:R:3 energy=-178.05425348322757 pbc="T T T"
H        1.23856635       2.14547685       1.41282848
H        4.90206506       0.00005820       1.41257548
H        4.92836086       4.24543905       1.41251598
H        6.16525186       6.38989023       4.89160614
H        9.83094365       4.24628540       4.88725321
H        6.14067409       2.14351769       4.89153379
H        3.97114114      -0.00013470       0.11725930
H        1.70421778       2.95193085       0.11553108
H        5.39359325       3.43909306       0.11719462
H        7.09761094       6.39102627       3.59601509
H        9.36451112       3.43847157       3.59261562
H        5.67554215       2.95158087       3.59593837
H        5.67092443       5.59184339       6.85257987
H        5.67281660       7.19147002       6.85110565
H        9.38504154       5.07331407       6.84984433
H        7.08109274       2.11786042       6.85103320
H        5.69674998       1.31637345       6.85257221
H        1.68291498       1.31595669       3.37442030
H        9.08677742       7.19069534       3.37498908
H        9.08601473       5.59142015       3.37185003
H        3.98897356       4.27382278       3.37179072
H        5.37357403       5.07415959       3.37500096
H        0.29805392       2.11549494       3.37440171
H       10.77007689       4.27368246       6.84983361
O        1.23129931       2.13287768       0.42100104
O        4.91738830      -0.00070117       0.42095249
O        4.92002857       4.25830973       0.42089267
O        6.15144934       6.39090761       3.89981763
O        6.14847055       2.13209417       3.89974462
O        6.15130302       6.39076064       6.51183101
O        6.14841569       2.13184291       6.51175991
O        1.23005131       2.13066581       3.03343315
O        8.60642079       6.39185605       3.03387048
O        4.92196752       4.25874934       3.03381225
O        9.83775690       4.25809772       3.89551826
O        9.83798279       4.25853440       6.50883245
36
Lattice="7.462712086643573 -3.1829606080690594e-21 1.2214994275398203e-29 3.731355557347352 6.4628976741199535 3.3372656090256324e-14 7.313983235787155e-18 2.968926811991455e-14 7.031627591980125" Properties=species:S:1:pos:R:3 energy=-178.05425348322757 pbc="T T T"
H        1.25256145       2.16971953       1.42879265
H        4.95745563       0.00005885       1.42853678
H        4.98404855       4.29341012       1.42847662
H        6.23491572       6.46209238       4.94687853
H        9.94202776       4.29426603       4.94247641
H        6.21006024       2.16773823       4.94680535
H        4.01601279      -0.00013623       0.11858426
H        1.72347448       2.98528600       0.11683652
H        5.45453781       3.47795287       0.11851886
H        7.17780994       6.46324126       3.63664802
H        9.47032481       3.47732436       3.63321015
H        5.73967257       2.98493207       3.63657044
H        5.73500267       5.65502806       6.93001015
H        5.73691623       7.27272957       6.92851927
H        9.49108720       5.13063965       6.92724370
H        7.16110509       2.14179105       6.92844600
H        5.76112004       1.33124773       6.93000240
H        1.70193097       1.33082626       3.41254935
H        9.18945287       7.27194614       3.41312455
H        9.18868157       5.65460004       3.40995003
H        4.03404671       4.32211456       3.40989005
H        5.43429238       5.13149473       3.41313657
H        0.30142176       2.13939884       3.41253054
H       10.89177267       4.32197266       6.92723286
O        1.24521229       2.15697799       0.42575811
O        4.97295201      -0.00070909       0.42570902
O        4.97562212       4.30642623       0.42564852
O        6.22095724       6.46312125       3.94388336
O        6.21794479       2.15618563       3.94380953
O        6.22080927       6.46297263       6.58541102
O        6.21788932       2.15593153       6.58533912
O        1.24395019       2.15474113       3.06770923
O        8.70366848       6.46408041       3.06815150
O        4.97758297       4.30687080       3.06809262
O        9.94891800       4.30621182       3.93953542
O        9.94914644       4.30665343       6.58237858
36
Lattice="7.546094344594898 -3.2185244137458082e-21 1.2351474658363547e-29 3.773046680893132 6.5351088213168245 3.3745534929253595e-14 7.395703718868574e-18 3.0020991786058845e-14 7.110193263398897" Properties=species:S:1:pos:R:3 energy=-178.05425348322757 pbc="T T T"
H        1.26655655       2.19396220       1.44475681
H        5.01284619       0.00005951       1.44449809
H        5.03973624       4.34138118       1.44443725
H        6.30457958       6.53429453       5.00215091
H       10.05311187       4.34224665       4.99769961
H        6.27944639       2.19195877       5.00207692
H        4.06088444      -0.00013775       0.11990923
H        1.74273117       3.01864115       0.11814196
H        5.51548236       3.51681268       0.11984309
H        7.25800893       6.53545625       3.67728096
H        9.57613849       3.51617715       3.67380467
H        5.80380299       3.01828326       3.67720251
H        5.79908092       5.71821273       7.00744044
H        5.80101585       7.35398912       7.00593289
H        9.59713287       5.18796523       7.00464308
H        7.24111744       2.16572168       7.00585880
H        5.82549009       1.34612200       7.00743259
H        1.72094695       1.34569582       3.45067839
H        9.29212832       7.35319693       3.45126002
H        9.29134840       5.71777993       3.44805003
H        4.07911985       4.37040634       3.44798938
H        5.49501073       5.18882987       3.45127217
H        0.30478960       2.16330273       3.45065938
H       11.01346846       4.37026286       7.00463211
O        1.25912528       2.18107830       0.43051518
O        5.02851572      -0.00071701       0.43046554
O        5.03121566       4.35454272       0.43040437
O        6.29046514       6.53533490       3.98794910
O        6.28741903       2.18027709       3.98787444
O        6.29031552       6.53518461       6.65899103
O        6.28736294       2.18002015       6.65891833
O        1.25784908       2.17881645       3.10198531
O        8.80091617       6.53630477       3.10243252
O        5.03319842       4.35499226       3.10237298
O       10.06007909       4.35432592       3.98355257
O       10.06031009       4.35477246       6.65592471
36
Lattice="7.629476602546222 -3.2540882194225574e-21 1.2487955041328889e-29 3.8147378044389124 6.607319968513695 3.411841376825087e-14 7.477424201949995e-18 3.035271545220314e-14 7.1887589348176695" Properties=species:S:1:pos:R:3 energy=-178.05425348322757 pbc="T T T"
H        1.28055165       2.21820488       1.46072097
H        5.06823676       0.00006017       1.46045939
H        5.09542394       4.38935224       1.46039788
H        6.37424344       6.60649668       5.05742330
H       10.16419598       4.39022728       5.05292281
H        6.34883254       2.21617931       5.05734849
H        4.10575609      -0.00013927       0.12123419
H        1.76198787       3.05199630       0.11944739
H        5.57642692       3.55567249       0.12116732
H        7.33820792       6.60767123       3.71791390
H        9.68195218       3.55502993       3.71439920
H        5.86793341       3.05163446       3.71783458
H        5.86315916       5.78139740       7.08487072
H        5.86511547       7.43524866       7.08334651
H        9.70317854       5.24529082       7.08204245
H        7.32112979       2.18965230       7.08327161
H        5.88986015       1.36099628       7.08486279
H        1.73996294       1.36056539       3.48880743
H        9.39480377       7.43444773       3.48939549
H        9.39401523       5.78095982       3.48615004
H        4.12419300       4.41869813       3.48608871
H        5.55572908       5.24616500       3.48940777
H        0.30815744       2.18720663       3.48878821
H       11.13516424       4.41855305       7.08203136
O        1.27303827       2.20517862       0.43527226
O        5.08407943      -0.00072494       0.43522207
O        5.08680920       4.40265921       0.43516022
O        6.35997305       6.60754855       4.03201483
O        6.35689328       2.20436855       4.03193935
O        6.35982177       6.60739660       6.73257104
O        6.35683656       2.20410877       6.73249753
O        1.27174796       2.20289177       3.13626139
O        8.89816386       6.60852913       3.13671354
O        5.08881387       4.40311372       3.13665334
O       10.17124019       4.40244002       4.02756973
O       10.17147373       4.40289150       6.72947083
36
Lattice="7.712858860497547 -3.2896520250993065e-21 1.2624435424294232e-29 3.856428927984693 6.6795311157105655 3.449129260724815e-14 7.559144685031415e-18 3.0684439118347435e-14 7.267324606236441" Properties=species:S:1:pos:R:3 energy=-178.05425348322757 pbc="T T T"
H        1.29454675       2.24244756       1.47668514
H        5.12362732       0.00006083       1.47642069
H        5.15111163       4.43732330       1.47635851
H        6.44390731       6.67869883       5.11269568
H       10.27528008       4.43820790       5.10814601
H        6.41821869       2.24039985       5.11262006
H        4.15062774      -0.00014079       0.12255916
H        1.78124457       3.08535145       0.12075283
H        5.63737148       3.59453230       0.12249156
H        7.41840692       6.67988622       3.75854684
H        9.78776586       3.59388272       3.75499373
H        5.93206383       3.08498565       3.75846666
H        5.92723740       5.84458207       7.16230100
H        5.92921509       7.51650821       7.16076014
H        9.80922421       5.30261640       7.15944182
H        7.40114213       2.21358293       7.16068441
H        5.95423020       1.37587055       7.16229298
H        1.75897893       1.37543496       3.52693648
H        9.49747922       7.51569852       3.52753096
H        9.49668207       5.84413971       3.52425004
H        4.16926615       4.46698991       3.52418804
H        5.61644743       5.30350014       3.52754338
H        0.31152528       2.21111053       3.52691704
H       11.25686002       4.46684325       7.15943061
O        1.28695125       2.22927893       0.44002933
O        5.13964314      -0.00073286       0.43997860
O        5.14240275       4.45077571       0.43991607
O        6.42948095       6.67976219       4.07608057
O        6.42636752       2.22846001       4.07600426
O        6.42932801       6.67960858       6.80615105
O        6.42631019       2.22819739       6.80607674
O        1.28564685       2.22696708       3.17053747
O        8.99541156       6.68075350       3.17099457
O        5.14442933       4.45123518       3.17093371
O       10.28240128       4.45055412       4.07158689
O       10.28263738       4.45101053       6.80301696
36
Lattice="7.796241118448873 -3.3252158307760565e-21 1.2760915807259578e-29 3.898120051530474 6.751742262907438 3.486417144624543e-14 7.640865168112837e-18 3.101616278449174e-14 7.345890277655215" Properties=species:S:1:pos:R:3 energy=-178.05425348322757 pbc="T T T"
H        1.30854185       2.26669023       1.49264930
H        5.17901789       0.00006148       1.49238200
H        5.20679932       4.48529437       1.49231915
H        6.51357117       6.75090097       5.16796807
H       10.38636419       4.48618853       5.16336921
H        6.48760483       2.26462038       5.16789163
H        4.19549939      -0.00014231       0.12388412
H        1.80050127       3.11870661       0.12205826
H        5.69831603       3.63339211       0.12381579
H        7.49860591       6.75210120       3.79917978
H        9.89357955       3.63273550       3.79558825
H        5.99619425       3.11833685       3.79909873
H        5.99131564       5.90776674       7.23973128
H        5.99331472       7.59776776       7.23817376
H        9.91526987       5.35994198       7.23684119
H        7.48115448       2.23751355       7.23809722
H        6.01860026       1.39074483       7.23972318
H        1.77799492       1.39030452       3.56506552
H        9.60015467       7.59694932       3.56566643
H        9.59934890       5.90731960       3.56235004
H        4.21433930       4.51528169       3.56228737
H        5.67716578       5.36083528       3.56567898
H        0.31489312       2.23501443       3.56504587
H       11.37855581       4.51513345       7.23682986
O        1.30086424       2.25337924       0.44478640
O        5.19520685      -0.00074078       0.44473512
O        5.19799629       4.49889220       0.44467192
O        6.49898885       6.75197584       4.12014631
O        6.49584176       2.25255147       4.12006917
O        6.49883426       6.75182057       6.87973106
O        6.49578381       2.25228601       6.87965595
O        1.29954573       2.25104240       3.20481355
O        9.09265925       6.75297786       3.20527559
O        5.20004478       4.49935664       3.20521407
O       10.39356238       4.49866821       4.11560404
O       10.39380103       4.49912956       6.87656309
36
Lattice="7.879623376400198 -3.3607796364528056e-21 1.2897396190224918e-29 3.939811175076254 6.823953410104309 3.523705028524271e-14 7.722585651194258e-18 3.134788645063603e-14 7.4244559490739865" Properties=species:S:1:pos:R:3 energy=-178.05425348322757 pbc="T T T"
H        1.32253695       2.29093291       1.50861347
H        5.23440845       0.00006214       1.50834330
H        5.26248702       4.53326543       1.50827978
H        6.58323503       6.82310312       5.22324045
H       10.49744830       4.53416916       5.21859241
H        6.55699098       2.28884092       5.22316319
H        4.24037104      -0.00014384       0.12520908
H        1.81975797       3.15206176       0.12336370
H        5.75926059       3.67225192       0.12514002
H        7.57880490       6.82431619       3.83981272
H        9.99939323       3.67158829       3.83618278
H        6.06032467       3.15168805       3.83973080
H        6.05539388       5.97095141       7.31716156
H        6.05741434       7.67902731       7.31558738
H       10.02131554       5.41726756       7.31424056
H        7.56116683       2.26144418       7.31551002
H        6.08297032       1.40561911       7.31715337
H        1.79701091       1.40517409       3.60319456
H        9.70283012       7.67820011       3.60380190
H        9.70201573       5.97049949       3.60045004
H        4.25941244       4.56357348       3.60038670
H        5.73788413       5.41817041       3.60381459
H        0.31826096       2.25891832       3.60317471
H       11.50025159       4.56342364       7.31422911
O        1.31477723       2.27747955       0.44954348
O        5.25077056      -0.00074871       0.44949165
O        5.25358983       4.54700870       0.44942777
O        6.56849675       6.82418948       4.16421204
O        6.56531601       2.27664293       4.16413408
O        6.56834051       6.82403255       6.95331107
O        6.56525744       2.27637463       6.95323516
O        1.31344462       2.27511772       3.23908963
O        9.18990694       6.82520222       3.23955661
O        5.25566023       4.54747810       3.23949444
O       10.50472347       4.54678231       4.15962120
O       10.50496468       4.54724859       6.95010922
