36
Lattice="7.504403215619235 -3.200742510907434e-21 1.2283234466880875e-29 3.752201119120242 6.499003247718389 3.355909550975496e-14 7.354843477327865e-18 2.9855129952986696e-14 7.070910427689511" Properties=species:S:1:pos:R:3:forces:R:3 energy=-179.69683512949769 stress="0.00038397872066882246 9.427702312473236e-06 -5.946510514985264e-06 9.427702312473236e-06 0.0003959352738826657 -1.02364654795572e-05 -5.946510514985264e-06 -1.02364654795572e-05 -0.0005353972184053684" pbc="T T T"
H        1.25955900       2.18184086       1.43677473       0.00132540       0.00222032      -0.00545839
H        4.98515091       0.00005918       1.43651743       0.00233896       0.00021530       0.00089908
H        5.01189240       4.31739565       1.43645693      -0.00097404       0.00209465       0.00090239
H        6.26974765       6.49819345       4.97451472       0.00363590       0.00277392      -0.00359498
H        9.99756981       4.31825634       4.97008801      -0.00098409      -0.00163619      -0.00376007
H        6.24475332       2.17984850       4.97444114       0.00058034       0.00457931      -0.00360556
H        4.03844861      -0.00013699       0.11924675       0.00399058      -0.00066143      -0.00179766
H        1.73310282       3.00196358       0.11748924      -0.00225744      -0.00390330       0.00785663
H        5.48501009       3.49738278       0.11918097      -0.00258866       0.00309943      -0.00176401
H        7.21790943       6.49934875       3.65696449      -0.00443805       0.00061916       0.00040202
H        9.52323165       3.49675075       3.65350741       0.00196771       0.00341204       0.00017053
H        5.77173778       3.00160766       3.65688648       0.00278209      -0.00352050       0.00046214
H        5.76704180       5.68662039       6.96872529       0.00342197      -0.00124493      -0.00320578
H        5.76896604       7.31335934       6.96722608      -0.00125697      -0.00210981       0.00070396
H        9.54411004       5.15930244       6.96594339       0.00035300      -0.00407867      -0.00289248
H        7.20111127       2.15375636       6.96715240      -0.00116868      -0.00212500       0.00072266
H        5.79330506       1.33868486       6.96871750      -0.00276981       0.00237210      -0.00322631
H        1.71143896       1.33826104       3.43161387       0.00254266       0.00223437      -0.00093334
H        9.24079059       7.31257153       3.43219228      -0.00357058      -0.00020612      -0.00263480
H        9.24001498       5.68618999       3.42900003      -0.00161312      -0.00016594       0.00347741
H        4.05658328       4.34626045       3.42893971       0.00061647      -0.00149548       0.00348708
H        5.46465156       5.16016230       3.43220437       0.00159934      -0.00322623      -0.00267474
H        0.30310568       2.15135079       3.43159496       0.00067954       0.00329850      -0.00089478
H       10.95262056       4.34611776       6.96593249      -0.00372797      -0.00172910      -0.00286811
O        1.25216879       2.16902815       0.42813665       0.00088178       0.00148474      -0.00085420
O        5.00073387      -0.00071305       0.42808728      -0.00354134       0.00100226       0.00411061
O        5.00341889       4.33048447       0.42802645       0.00261863      -0.00257926       0.00411970
O        6.25571119       6.49922808       3.96591623       0.00014673      -0.00339166      -0.00017244
O        6.25268191       2.16823136       3.96584198      -0.00298759      -0.00157327      -0.00016870
O        6.25556239       6.49907862       6.62220102      -0.00305469       0.00140685       0.00220405
O        6.25262613       2.16797584       6.62212872       0.00275740      -0.00187486       0.00225685
O        1.25089963       2.16677879       3.08484727      -0.00094964      -0.00164780       0.00250004
O        8.75229233       6.50019259       3.08529201       0.00425893      -0.00216828       0.00076160
O        5.00539070       4.33093153       3.08523280      -0.00403294       0.00254733       0.00080443
O       10.00449855       4.33026887       3.96154400      -0.00006692      -0.00007713       0.00214872
O       10.00472826       4.33071295       6.61915164       0.00348510       0.00605465       0.00251644
