36
Lattice="10.554869338533042 5.8980039804e-06 3.133324905e-07 3.9320800553e-06 7.036477436385189 -1.759153965e-07 1.74281243e-08 -3.57539034e-08 3.325532814296048" Properties=species:S:1:pos:R:3:forces:R:3 energy=-177.930242164919 pbc="T T T"
H        0.55561751       0.55560705       0.57635601      -0.00001201      -0.00000826       0.00000646
H        4.07390729       0.55560902       0.57635612      -0.00001201      -0.00000826       0.00000646
H        7.59219707       0.55561099       0.57635622      -0.00001201      -0.00000826       0.00000646
H        0.55561948       4.07384577       0.57635593      -0.00001201      -0.00000826       0.00000646
H        4.07390926       4.07384774       0.57635603      -0.00001201      -0.00000826       0.00000646
H        7.59219904       4.07384970       0.57635613      -0.00001201      -0.00000826       0.00000646
H        2.96267419       2.96263373       0.57635595       0.00001186       0.00000823       0.00000663
H        6.48096397       2.96263570       0.57635606       0.00001186       0.00000823       0.00000663
H        9.99925375       2.96263767       0.57635616       0.00001186       0.00000823       0.00000663
H        2.96267616       6.48087245       0.57635587       0.00001186       0.00000823       0.00000663
H        6.48096594       6.48087442       0.57635597       0.00001186       0.00000823       0.00000663
H        9.99925571       6.48087638       0.57635608       0.00001186       0.00000823       0.00000663
H        2.31476368       1.20351303       2.23912373      -0.00001559       0.00001188       0.00000661
H        5.83305346       1.20351499       2.23912383      -0.00001559       0.00001188       0.00000661
H        9.35134324       1.20351696       2.23912394      -0.00001559       0.00001188       0.00000661
H        2.31476565       4.72175175       2.23912364      -0.00001559       0.00001188       0.00000661
H        5.83305543       4.72175371       2.23912374      -0.00001559       0.00001188       0.00000661
H        9.35134521       4.72175568       2.23912385      -0.00001559       0.00001188       0.00000661
H        1.20352815       2.31472750       2.23912337       0.00001520      -0.00001152       0.00000738
H        4.72181793       2.31472946       2.23912348       0.00001520      -0.00001152       0.00000738
H        8.24010771       2.31473143       2.23912358       0.00001520      -0.00001152       0.00000738
H        1.20353011       5.83296621       2.23912328       0.00001520      -0.00001152       0.00000738
H        4.72181989       5.83296818       2.23912339       0.00001520      -0.00001152       0.00000738
H        8.24010967       5.83297015       2.23912349       0.00001520      -0.00001152       0.00000738
O       10.55486926       0.00000602       3.30350044       0.00000039      -0.00000034      -0.00001102
O        3.51828970       0.00000209       3.30350023       0.00000039      -0.00000034      -0.00001102
O        7.03657948       0.00000406       3.30350034       0.00000039      -0.00000034      -0.00001102
O       10.55487122       3.51824474       3.30350035       0.00000039      -0.00000034      -0.00001102
O        3.51829166       3.51824081       3.30350014       0.00000039      -0.00000034      -0.00001102
O        7.03658144       3.51824277       3.30350025       0.00000039      -0.00000034      -0.00001102
O        1.75914597       1.75912016       1.64073520       0.00000016       0.00000000      -0.00001607
O        5.27743575       1.75912213       1.64073530       0.00000016       0.00000000      -0.00001607
O        8.79572553       1.75912409       1.64073541       0.00000016       0.00000000      -0.00001607
O        1.75914794       5.27735888       1.64073511       0.00000016       0.00000000      -0.00001607
O        5.27743772       5.27736085       1.64073521       0.00000016       0.00000000      -0.00001607
O        8.79572750       5.27736281       1.64073532       0.00000016       0.00000000      -0.00001607
