36
Lattice="6.513102844567964 -0.007262266607193949 0.00014995744409907852 -0.007364263471783358 6.443901522951839 -0.030998070663997096 0.0020000708752211274 -0.03383039614374231 6.908146405042293" Properties=species:S:1:pos:R:3:forces:R:3 energy=-179.34790910379877 stress="1.5012233937992253e-07 9.81533493356604e-07 -7.615650101965343e-07 9.81533493356604e-07 -2.697087032035514e-07 -7.140347526921218e-07 -7.615650101965343e-07 -7.140347526921218e-07 -1.28403073701433e-07" pbc="T T T"
H        1.59778373       2.16698559       1.34197937      -0.00000477      -0.00005816      -0.00000621
H        4.90363987       4.26436133       4.75480271      -0.00000826       0.00002860       0.00001448
H        0.93964185       4.75925291       2.96477525      -0.00000537       0.00002892      -0.00001357
H        1.64061906       5.38339939       0.52177491      -0.00001022      -0.00003565      -0.00002409
H        4.84080202       1.00451774       3.95555236       0.00000693      -0.00004037       0.00000666
H        4.18607273       4.87326767       2.30545474       0.00001865      -0.00002330      -0.00001764
H        2.36478050       5.80664550       6.08347022       0.00000681       0.00001045       0.00003089
H        4.14554295       0.51537553       2.60270253      -0.00004020       0.00002090      -0.00001791
H        2.76696617       0.87498573       4.35441127       0.00000534      -0.00001110      -0.00002397
H        3.72623125       5.46771490       0.89482161       0.00003177       0.00003520      -0.00000594
H        6.47688925       4.25061449       4.78710686       0.00000352      -0.00006407      -0.00000938
H        0.95803130       3.19333132       3.09596269       0.00003817      -0.00000648       0.00001013
H        5.56521447       3.25646159       6.51964123      -0.00000719       0.00003432       0.00001660
H        1.21117621       0.77953496       4.92499137      -0.00001187       0.00004376      -0.00004258
H        5.76731594       1.25237018       5.90429357      -0.00002701      -0.00000644       0.00003804
H        2.51511203       1.89598977       6.30683368       0.00004977      -0.00002036       0.00008066
H        2.57297289       3.44265974       6.82111687      -0.00004912       0.00002581      -0.00005064
H        3.92157661       2.86136616       3.34794383       0.00002483      -0.00000242       0.00001629
H        0.67128783       0.32745064       1.91849553      -0.00003288       0.00004088      -0.00000320
H        2.81211936       3.95265868       3.69393290      -0.00001598      -0.00005726      -0.00000351
H        0.02388902       2.21542245       1.36384742       0.00001756       0.00003682      -0.00002072
H        4.42383723       2.43858801       0.30878144       0.00001420      -0.00006109      -0.00001929
H        6.06678302       5.66884523       1.54787784      -0.00002793      -0.00001329       0.00001745
H        5.82695153       6.16330645       5.32349641       0.00000537       0.00001193      -0.00001506
O        0.81219321       1.98609381       1.94865605      -0.00000478      -0.00000621       0.00001587
O        5.67830471       4.47140467       5.36205067       0.00001344      -0.00001041       0.00001313
O        1.13867492       4.02817670       3.63103077      -0.00000304       0.00001904       0.00000069
O        5.41706722       2.46181358       0.16399135       0.00002421      -0.00001191      -0.00002284
O        2.40686671       5.16095607      -0.08974486       0.00002064      -0.00001555       0.00000764
O        4.06666282       1.19358893       3.33930983       0.00000357       0.00001345       0.00000748
O        2.18078084       0.74661669       5.15969285      -0.00000940      -0.00002351      -0.00001258
O        4.40051581       5.58810822       1.63030755       0.00002137       0.00001720       0.00001637
O        2.73897354       2.52512826       0.18006791       0.00002077       0.00004242       0.00003026
O        3.80135264       3.83633002       3.55497765      -0.00000201       0.00001033      -0.00001493
O        0.53814115       5.78714524       1.71704846      -0.00001810       0.00002286       0.00001196
O        5.99961837       0.67942806       5.11156728      -0.00004879       0.00002471      -0.00001053
