6
Lattice="102.500081 0.0 0.0 0.0 102.83274 0.0 0.0 0.0 102.286044" Properties=species:S:1:pos:R:3:forces:R:3 #=T CELL(abcABC):=T 200.00000=T 90.00000=T Step:=T 67=T Bead:=T 0=T positionsangstrom=T cellatomic_unit=T energy=-28.561310775125985 stress="-1.6399577879122104e-14 1.2871939218311613e-14 -6.693944417429239e-15 1.2871939218311613e-14 -2.4079276120047645e-14 -1.0323349531647874e-14 -6.693944417429239e-15 -1.0323349531647874e-14 -3.2753428090766305e-14" free_energy=-28.561310775125985 pbc="F F F"
O       50.91031054      50.48797291      50.68500460       0.00005223       0.00002647       0.00004075
H       49.95680556      50.52333053      50.49010682      -0.00003960       0.00001466      -0.00001288
H       51.29659355      49.93971517      49.97888357      -0.00000083      -0.00003974      -0.00003333
O       52.22960423      52.87764084      51.41137549      -0.00001405       0.00003827      -0.00003846
H       52.52900870      52.76640825      52.32702571       0.00001111      -0.00001298       0.00003353
H       51.77521342      52.03561329      51.18337191      -0.00000887      -0.00002668       0.00001039
