3
Properties=species:S:1:pos:R:3:forces:R:3 energy=-14.169202954273132 pbc="F F F"
H       -0.00000000      -0.05347905      -0.36037169      -0.00000000       0.00034592       0.00022244
O       -0.00000000       0.71741341       0.23278528       0.00000000      -0.00038537      -0.00021826
H       -0.00000000       0.33606564       1.12758641      -0.00000000       0.00003945      -0.00000418
