6
Lattice="4.500081 0.0 0.0 0.0 4.83274 0.0 0.0 0.0 4.286044" Properties=species:S:1:pos:R:3:forces:R:3 #=T CELL(abcABC):=T 200.00000=T 90.00000=T Step:=T 67=T Bead:=T 0=T positionsangstrom=T cellatomic_unit=T energy=-28.464044284158643 stress="1.6454475814801173e-11 1.0476588211858457e-11 1.154429259835838e-12 1.0476588211858457e-11 1.350578351572397e-11 9.605237227333534e-12 1.154429259835838e-12 9.605237227333534e-12 1.9313625148309184e-11" free_energy=-28.464044284158643 pbc="F F F"
O        1.93007667       1.54807808       1.66802632       0.00002319      -0.00004323      -0.00004187
H        0.96849499       1.54123609       1.51812247       0.00000760       0.00001999       0.00000295
H        2.31835248       0.95309266       1.00289853      -0.00003137       0.00001685       0.00003831
O        3.21048430       3.84417092       2.39924366      -0.00005168      -0.00004061       0.00002088
H        3.51639496       3.74800978       3.31533627      -0.00001034      -0.00000811      -0.00003359
H        2.75373259       2.99609347       2.17214085       0.00006261       0.00005512       0.00001332
