288
Lattice="14.971040901256387 -2.2347090858256663e-05 7.631878079747437e-07 7.485500122480655 12.965266350601105 1.5372742112275942e-06 6.909980567745879e-07 1.210381181797417e-06 14.213503360041459" Properties=species:S:1:pos:R:3:forces:R:3 energy=-1437.5815649392887 stress="-5.739474057604201e-07 7.772984401580954e-07 9.350847413709934e-08 7.772984401580954e-07 2.9640333203215935e-07 7.144489240250808e-08 9.350847413709934e-08 7.144489240250808e-08 -6.310828629292609e-07" pbc="T T T"
H        1.25676800       2.17687756       1.44498257      -0.00003344      -0.00005604       0.00002670
H        4.97175661      -0.00009447       1.44493648       0.00002416       0.00005479       0.00000450
H        4.99947606       4.30565672       1.44493462       0.00003505       0.00005362       0.00000992
H        6.25633294       6.48261119       4.99832637       0.00001876      -0.00005890      -0.00000327
H        9.97136210       4.30568555       4.99834485       0.00000505       0.00000021      -0.00002253
H        6.22863308       2.17684662       4.99832549      -0.00006069      -0.00001151       0.00000219
H        4.02592318      -0.00008884       0.12411698       0.00001439       0.00009530       0.00000702
H        1.72968498       2.99600768       0.12417476       0.00000079      -0.00003043      -0.00009201
H        5.47239561       3.48654801       0.12411425       0.00005506       0.00004994       0.00000513
H        7.20218781       6.48258117       3.67751832      -0.00004739      -0.00004144      -0.00001758
H        9.49844223       3.48655060       3.67753423      -0.00001801      -0.00000939      -0.00000868
H        5.75568132       2.99596175       3.67751617       0.00000826      -0.00004532      -0.00002188
H        5.75344837       5.67014042       6.99951610      -0.00003484      -0.00000153       0.00003104
H        5.75347661       7.29509018       6.99955141      -0.00003767      -0.00006144      -0.00002020
H        9.51917547       5.14743649       6.99952285       0.00000571      -0.00002023      -0.00002264
H        7.18367699       2.14760885       6.99955065      -0.00002406      -0.00007501      -0.00000594
H        5.77644512       1.33510620       6.99951852       0.00001289      -0.00001148       0.00002959
H        1.70893931       1.33510167       3.44616686      -0.00002915      -0.00000031      -0.00002013
H        9.21739863       7.29501496       3.44614298       0.00000850       0.00004465      -0.00001104
H        9.21739382       5.67007622       3.44614791       0.00000539       0.00002605       0.00000094
H        4.04443506       4.33493135       3.44614780       0.00000781       0.00002664       0.00000659
H        5.45166826       5.14740863       3.44614446       0.00003854       0.00001326      -0.00002073
H        0.30168814       2.14757540       3.44616981       0.00002639      -0.00001446      -0.00002630
H       10.92642427       4.33496350       6.99952583      -0.00002995      -0.00001740      -0.00003042
O        1.24916283       2.16370687       0.43670949      -0.00000337       0.00004123       0.00002600
O        4.98697328      -0.00007581       0.43666370      -0.00001417       0.00003877       0.00001969
O        4.99187601       4.31884462       0.43666208       0.00006894       0.00002191       0.00002359
O        6.24113352       6.48257950       3.99005382      -0.00000481       0.00001416       0.00001340
O        6.23621226       2.16366716       3.99005324      -0.00001927      -0.00000995       0.00001593
O        6.23902675       6.48261125       6.64903868      -0.00002529      -0.00002795       0.00001335
O        6.23727436       2.16186676       6.64904085       0.00000448      -0.00004103      -0.00000358
O        1.24809986       2.16185857       3.09568450       0.00000943       0.00000564       0.00000466
O        8.73182245       6.48254887       3.09565036       0.00003692       0.00002528       0.00002459
O        4.99084148       4.32065368       3.09564909      -0.00000410       0.00003581       0.00002867
O        9.97896677       4.31884899       3.99006874      -0.00000958      -0.00003693       0.00000545
O        9.98001433       4.32068134       6.64903210       0.00000928       0.00002348       0.00002798
H        1.25676834       2.17687816       8.55173425      -0.00003344      -0.00005604       0.00002670
H        4.97175696      -0.00009386       8.55168816       0.00002416       0.00005479       0.00000450
H        4.99947641       4.30565732       8.55168630       0.00003505       0.00005362       0.00000992
H        6.25633328       6.48261180      12.10507805       0.00001876      -0.00005890      -0.00000327
H        9.97136245       4.30568616      12.10509653       0.00000505       0.00000021      -0.00002253
H        6.22863343       2.17684722      12.10507717      -0.00006069      -0.00001151       0.00000219
H        4.02592353      -0.00008823       7.23086866       0.00001439       0.00009530       0.00000702
H        1.72968532       2.99600829       7.23092644       0.00000079      -0.00003043      -0.00009201
H        5.47239595       3.48654861       7.23086593       0.00005506       0.00004994       0.00000513
H        7.20218816       6.48258178      10.78427000      -0.00004739      -0.00004144      -0.00001758
H        9.49844258       3.48655120      10.78428591      -0.00001801      -0.00000939      -0.00000868
H        5.75568167       2.99596236      10.78426785       0.00000826      -0.00004532      -0.00002188
H        5.75344872       5.67014102      14.10626778      -0.00003484      -0.00000153       0.00003104
H        5.75347695       7.29509079      14.10630309      -0.00003767      -0.00006144      -0.00002020
H        9.51917582       5.14743710      14.10627453       0.00000571      -0.00002023      -0.00002264
H        7.18367734       2.14760946      14.10630233      -0.00002406      -0.00007501      -0.00000594
H        5.77644547       1.33510680      14.10627020       0.00001289      -0.00001148       0.00002959
H        1.70893965       1.33510228      10.55291854      -0.00002915      -0.00000031      -0.00002013
H        9.21739898       7.29501557      10.55289466       0.00000850       0.00004465      -0.00001104
H        9.21739417       5.67007683      10.55289959       0.00000539       0.00002605       0.00000094
H        4.04443541       4.33493195      10.55289948       0.00000781       0.00002664       0.00000659
H        5.45166861       5.14740924      10.55289614       0.00003854       0.00001326      -0.00002073
H        0.30168848       2.14757600      10.55292149       0.00002639      -0.00001446      -0.00002630
H       10.92642462       4.33496411      14.10627751      -0.00002995      -0.00001740      -0.00003042
O        1.24916317       2.16370747       7.54346117      -0.00000337       0.00004123       0.00002600
O        4.98697362      -0.00007521       7.54341538      -0.00001417       0.00003877       0.00001969
O        4.99187636       4.31884523       7.54341376       0.00006894       0.00002191       0.00002359
O        6.24113386       6.48258011      11.09680550      -0.00000481       0.00001416       0.00001340
O        6.23621261       2.16366776      11.09680492      -0.00001927      -0.00000995       0.00001593
O        6.23902710       6.48261186      13.75579036      -0.00002529      -0.00002795       0.00001335
O        6.23727470       2.16186736      13.75579253       0.00000448      -0.00004103      -0.00000358
O        1.24810020       2.16185917      10.20243618       0.00000943       0.00000564       0.00000466
O        8.73182280       6.48254948      10.20240204       0.00003692       0.00002528       0.00002459
O        4.99084182       4.32065429      10.20240077      -0.00000410       0.00003581       0.00002867
O        9.97896712       4.31884960      11.09682042      -0.00000958      -0.00003693       0.00000545
O        9.98001468       4.32068195      13.75578378       0.00000928       0.00002348       0.00002798
H        4.99951806       8.65951073       1.44498334      -0.00003344      -0.00005604       0.00002670
H        8.71450667       6.48253871       1.44493725       0.00002416       0.00005479       0.00000450
H        8.74222612      10.78828989       1.44493538       0.00003505       0.00005362       0.00000992
H        9.99908300      12.96524437       4.99832714       0.00001876      -0.00005890      -0.00000327
H       13.71411216      10.78831873       4.99834562       0.00000505       0.00000021      -0.00002253
H        9.97138314       8.65947979       4.99832626      -0.00006069      -0.00001151       0.00000219
H        7.76867324       6.48254434       0.12411775       0.00001439       0.00009530       0.00000702
H        5.47243504       9.47864086       0.12417553       0.00000079      -0.00003043      -0.00009201
H        9.21514567       9.96918118       0.12411502       0.00005506       0.00004994       0.00000513
H       10.94493787      12.96521435       3.67751909      -0.00004739      -0.00004144      -0.00001758
H       13.24119229       9.96918377       3.67753500      -0.00001801      -0.00000939      -0.00000868
H        9.49843138       9.47859493       3.67751694       0.00000826      -0.00004532      -0.00002188
H        9.49619843      12.15277359       6.99951687      -0.00003484      -0.00000153       0.00003104
H        9.49622667      13.77772336       6.99955218      -0.00003767      -0.00006144      -0.00002020
H       13.26192553      11.63006967       6.99952362       0.00000571      -0.00002023      -0.00002264
H       10.92642705       8.63024203       6.99955141      -0.00002406      -0.00007501      -0.00000594
H        9.51919518       7.81773937       6.99951929       0.00001289      -0.00001148       0.00002959
H        5.45168937       7.81773485       3.44616763      -0.00002915      -0.00000031      -0.00002013
H       12.96014870      13.77764814       3.44614375       0.00000850       0.00004465      -0.00001104
H       12.96014389      12.15270940       3.44614868       0.00000539       0.00002605       0.00000094
H        7.78718513      10.81756452       3.44614857       0.00000781       0.00002664       0.00000659
H        9.19441832      11.63004181       3.44614523       0.00003854       0.00001326      -0.00002073
H        4.04443820       8.63020857       3.44617058       0.00002639      -0.00001446      -0.00002630
H       14.66917433      10.81759668       6.99952659      -0.00002995      -0.00001740      -0.00003042
O        4.99191289       8.64634004       0.43671026      -0.00000337       0.00004123       0.00002600
O        8.72972334       6.48255736       0.43666447      -0.00001417       0.00003877       0.00001969
O        8.73462607      10.80147780       0.43666285       0.00006894       0.00002191       0.00002359
O        9.98388358      12.96521268       3.99005459      -0.00000481       0.00001416       0.00001340
O        9.97896232       8.64630033       3.99005401      -0.00001927      -0.00000995       0.00001593
O        9.98177681      12.96524443       6.64903944      -0.00002529      -0.00002795       0.00001335
O        9.98002442       8.64449993       6.64904161       0.00000448      -0.00004103      -0.00000358
O        4.99084992       8.64449174       3.09568527       0.00000943       0.00000564       0.00000466
O       12.47457251      12.96518205       3.09565113       0.00003692       0.00002528       0.00002459
O        8.73359154      10.80328686       3.09564986      -0.00000410       0.00003581       0.00002867
O       13.72171684      10.80148217       3.99006951      -0.00000958      -0.00003693       0.00000545
O       13.72276439      10.80331452       6.64903287       0.00000928       0.00002348       0.00002798
H        4.99951840       8.65951134       8.55173502      -0.00003344      -0.00005604       0.00002670
H        8.71450702       6.48253931       8.55168893       0.00002416       0.00005479       0.00000450
H        8.74222647      10.78829050       8.55168706       0.00003505       0.00005362       0.00000992
H        9.99908335      12.96524497      12.10507882       0.00001876      -0.00005890      -0.00000327
H       13.71411251      10.78831934      12.10509730       0.00000505       0.00000021      -0.00002253
H        9.97138349       8.65948040      12.10507794      -0.00006069      -0.00001151       0.00000219
H        7.76867359       6.48254494       7.23086943       0.00001439       0.00009530       0.00000702
H        5.47243538       9.47864146       7.23092721       0.00000079      -0.00003043      -0.00009201
H        9.21514601       9.96918179       7.23086670       0.00005506       0.00004994       0.00000513
H       10.94493822      12.96521495      10.78427077      -0.00004739      -0.00004144      -0.00001758
H       13.24119264       9.96918438      10.78428668      -0.00001801      -0.00000939      -0.00000868
H        9.49843173       9.47859553      10.78426862       0.00000826      -0.00004532      -0.00002188
H        9.49619878      12.15277420      14.10626855      -0.00003484      -0.00000153       0.00003104
H        9.49622701      13.77772396      14.10630386      -0.00003767      -0.00006144      -0.00002020
H       13.26192588      11.63007027      14.10627530       0.00000571      -0.00002023      -0.00002264
H       10.92642740       8.63024264      14.10630309      -0.00002406      -0.00007501      -0.00000594
H        9.51919553       7.81773998      14.10627097       0.00001289      -0.00001148       0.00002959
H        5.45168971       7.81773545      10.55291931      -0.00002915      -0.00000031      -0.00002013
H       12.96014904      13.77764874      10.55289543       0.00000850       0.00004465      -0.00001104
H       12.96014423      12.15271000      10.55290036       0.00000539       0.00002605       0.00000094
H        7.78718547      10.81756513      10.55290025       0.00000781       0.00002664       0.00000659
H        9.19441867      11.63004241      10.55289691       0.00003854       0.00001326      -0.00002073
H        4.04443854       8.63020918      10.55292226       0.00002639      -0.00001446      -0.00002630
H       14.66917468      10.81759728      14.10627827      -0.00002995      -0.00001740      -0.00003042
O        4.99191324       8.64634065       7.54346194      -0.00000337       0.00004123       0.00002600
O        8.72972369       6.48255797       7.54341615      -0.00001417       0.00003877       0.00001969
O        8.73462642      10.80147840       7.54341453       0.00006894       0.00002191       0.00002359
O        9.98388393      12.96521328      11.09680627      -0.00000481       0.00001416       0.00001340
O        9.97896267       8.64630094      11.09680569      -0.00001927      -0.00000995       0.00001593
O        9.98177716      12.96524503      13.75579112      -0.00002529      -0.00002795       0.00001335
O        9.98002476       8.64450054      13.75579329       0.00000448      -0.00004103      -0.00000358
O        4.99085027       8.64449235      10.20243695       0.00000943       0.00000564       0.00000466
O       12.47457286      12.96518265      10.20240281       0.00003692       0.00002528       0.00002459
O        8.73359188      10.80328746      10.20240154      -0.00000410       0.00003581       0.00002867
O       13.72171718      10.80148277      11.09682119      -0.00000958      -0.00003693       0.00000545
O       13.72276474      10.80331512      13.75578455       0.00000928       0.00002348       0.00002798
H        8.74228845       2.17686638       1.44498295      -0.00003344      -0.00005604       0.00002670
H       12.45727706      -0.00010564       1.44493686       0.00002416       0.00005479       0.00000450
H       12.48499651       4.30564554       1.44493500       0.00003505       0.00005362       0.00000992
H       13.74185339       6.48260002       4.99832675       0.00001876      -0.00005890      -0.00000327
H       17.45688255       4.30567438       4.99834524       0.00000505       0.00000021      -0.00002253
H       13.71415353       2.17683544       4.99832587      -0.00006069      -0.00001151       0.00000219
H       11.51144363      -0.00010001       0.12411736       0.00001439       0.00009530       0.00000702
H        9.21520543       2.99599651       0.12417514       0.00000079      -0.00003043      -0.00009201
H       12.95791606       3.48653684       0.12411463       0.00005506       0.00004994       0.00000513
H       14.68770826       6.48257000       3.67751871      -0.00004739      -0.00004144      -0.00001758
H       16.98396268       3.48653942       3.67753461      -0.00001801      -0.00000939      -0.00000868
H       13.24120177       2.99595058       3.67751655       0.00000826      -0.00004532      -0.00002188
H       13.23896882       5.67012924       6.99951648      -0.00003484      -0.00000153       0.00003104
H       13.23899706       7.29507901       6.99955179      -0.00003767      -0.00006144      -0.00002020
H       17.00469592       5.14742532       6.99952323       0.00000571      -0.00002023      -0.00002264
H       14.66919744       2.14759768       6.99955103      -0.00002406      -0.00007501      -0.00000594
H       13.26196557       1.33509502       6.99951891       0.00001289      -0.00001148       0.00002959
H        9.19445976       1.33509050       3.44616724      -0.00002915      -0.00000031      -0.00002013
H       16.70291909       7.29500379       3.44614336       0.00000850       0.00004465      -0.00001104
H       16.70291428       5.67006505       3.44614829       0.00000539       0.00002605       0.00000094
H       11.52995552       4.33492017       3.44614818       0.00000781       0.00002664       0.00000659
H       12.93718871       5.14739746       3.44614485       0.00003854       0.00001326      -0.00002073
H        7.78720859       2.14756423       3.44617019       0.00002639      -0.00001446      -0.00002630
H       18.41194472       4.33495233       6.99952621      -0.00002995      -0.00001740      -0.00003042
O        8.73468328       2.16369569       0.43670987      -0.00000337       0.00004123       0.00002600
O       12.47249373      -0.00008699       0.43666408      -0.00001417       0.00003877       0.00001969
O       12.47739646       4.31883345       0.43666246       0.00006894       0.00002191       0.00002359
O       13.72665397       6.48256833       3.99005420      -0.00000481       0.00001416       0.00001340
O       13.72173271       2.16365598       3.99005362      -0.00001927      -0.00000995       0.00001593
O       13.72454720       6.48260008       6.64903906      -0.00002529      -0.00002795       0.00001335
O       13.72279481       2.16185559       6.64904123       0.00000448      -0.00004103      -0.00000358
O        8.73362031       2.16184739       3.09568489       0.00000943       0.00000564       0.00000466
O       16.21734290       6.48253770       3.09565074       0.00003692       0.00002528       0.00002459
O       12.47636193       4.32064251       3.09564948      -0.00000410       0.00003581       0.00002867
O       17.46448722       4.31883782       3.99006912      -0.00000958      -0.00003693       0.00000545
O       17.46553478       4.32067017       6.64903248       0.00000928       0.00002348       0.00002798
H        8.74228879       2.17686699       8.55173463      -0.00003344      -0.00005604       0.00002670
H       12.45727741      -0.00010504       8.55168854       0.00002416       0.00005479       0.00000450
H       12.48499686       4.30564615       8.55168668       0.00003505       0.00005362       0.00000992
H       13.74185374       6.48260062      12.10507843       0.00001876      -0.00005890      -0.00000327
H       17.45688290       4.30567499      12.10509692       0.00000505       0.00000021      -0.00002253
H       13.71415388       2.17683605      12.10507755      -0.00006069      -0.00001151       0.00000219
H       11.51144398      -0.00009941       7.23086904       0.00001439       0.00009530       0.00000702
H        9.21520577       2.99599711       7.23092682       0.00000079      -0.00003043      -0.00009201
H       12.95791640       3.48653744       7.23086631       0.00005506       0.00004994       0.00000513
H       14.68770861       6.48257061      10.78427039      -0.00004739      -0.00004144      -0.00001758
H       16.98396303       3.48654003      10.78428629      -0.00001801      -0.00000939      -0.00000868
H       13.24120212       2.99595118      10.78426823       0.00000826      -0.00004532      -0.00002188
H       13.23896917       5.67012985      14.10626816      -0.00003484      -0.00000153       0.00003104
H       13.23899740       7.29507962      14.10630347      -0.00003767      -0.00006144      -0.00002020
H       17.00469627       5.14742592      14.10627491       0.00000571      -0.00002023      -0.00002264
H       14.66919779       2.14759829      14.10630271      -0.00002406      -0.00007501      -0.00000594
H       13.26196592       1.33509563      14.10627059       0.00001289      -0.00001148       0.00002959
H        9.19446010       1.33509111      10.55291892      -0.00002915      -0.00000031      -0.00002013
H       16.70291943       7.29500439      10.55289504       0.00000850       0.00004465      -0.00001104
H       16.70291462       5.67006566      10.55289997       0.00000539       0.00002605       0.00000094
H       11.52995586       4.33492078      10.55289986       0.00000781       0.00002664       0.00000659
H       12.93718906       5.14739806      10.55289653       0.00003854       0.00001326      -0.00002073
H        7.78720893       2.14756483      10.55292187       0.00002639      -0.00001446      -0.00002630
H       18.41194507       4.33495293      14.10627789      -0.00002995      -0.00001740      -0.00003042
O        8.73468362       2.16369630       7.54346155      -0.00000337       0.00004123       0.00002600
O       12.47249407      -0.00008638       7.54341576      -0.00001417       0.00003877       0.00001969
O       12.47739681       4.31883406       7.54341414       0.00006894       0.00002191       0.00002359
O       13.72665432       6.48256894      11.09680588      -0.00000481       0.00001416       0.00001340
O       13.72173306       2.16365659      11.09680530      -0.00001927      -0.00000995       0.00001593
O       13.72454755       6.48260069      13.75579074      -0.00002529      -0.00002795       0.00001335
O       13.72279515       2.16185619      13.75579291       0.00000448      -0.00004103      -0.00000358
O        8.73362066       2.16184800      10.20243657       0.00000943       0.00000564       0.00000466
O       16.21734325       6.48253830      10.20240242       0.00003692       0.00002528       0.00002459
O       12.47636227       4.32064311      10.20240116      -0.00000410       0.00003581       0.00002867
O       17.46448757       4.31883842      11.09682080      -0.00000958      -0.00003693       0.00000545
O       17.46553513       4.32067078      13.75578416       0.00000928       0.00002348       0.00002798
H       12.48503851       8.65949956       1.44498372      -0.00003344      -0.00005604       0.00002670
H       16.20002712       6.48252753       1.44493763       0.00002416       0.00005479       0.00000450
H       16.22774657      10.78827872       1.44493577       0.00003505       0.00005362       0.00000992
H       17.48460345      12.96523319       4.99832752       0.00001876      -0.00005890      -0.00000327
H       21.19963261      10.78830756       4.99834600       0.00000505       0.00000021      -0.00002253
H       17.45690359       8.65946862       4.99832664      -0.00006069      -0.00001151       0.00000219
H       15.25419369       6.48253317       0.12411813       0.00001439       0.00009530       0.00000702
H       12.95795549       9.47862968       0.12417591       0.00000079      -0.00003043      -0.00009201
H       16.70066612       9.96917001       0.12411540       0.00005506       0.00004994       0.00000513
H       18.43045832      12.96520318       3.67751947      -0.00004739      -0.00004144      -0.00001758
H       20.72671274       9.96917260       3.67753538      -0.00001801      -0.00000939      -0.00000868
H       16.98395183       9.47858375       3.67751732       0.00000826      -0.00004532      -0.00002188
H       16.98171888      12.15276242       6.99951725      -0.00003484      -0.00000153       0.00003104
H       16.98174712      13.77771219       6.99955256      -0.00003767      -0.00006144      -0.00002020
H       20.74744598      11.63005849       6.99952400       0.00000571      -0.00002023      -0.00002264
H       18.41194750       8.63023086       6.99955180      -0.00002406      -0.00007501      -0.00000594
H       17.00471563       7.81772820       6.99951967       0.00001289      -0.00001148       0.00002959
H       12.93720982       7.81772368       3.44616801      -0.00002915      -0.00000031      -0.00002013
H       20.44566915      13.77763696       3.44614413       0.00000850       0.00004465      -0.00001104
H       20.44566434      12.15269823       3.44614906       0.00000539       0.00002605       0.00000094
H       15.27270558      10.81755335       3.44614895       0.00000781       0.00002664       0.00000659
H       16.67993877      11.63003063       3.44614561       0.00003854       0.00001326      -0.00002073
H       11.52995865       8.63019740       3.44617096       0.00002639      -0.00001446      -0.00002630
H       22.15469478      10.81758550       6.99952698      -0.00002995      -0.00001740      -0.00003042
O       12.47743334       8.64632887       0.43671064      -0.00000337       0.00004123       0.00002600
O       16.21524379       6.48254619       0.43666485      -0.00001417       0.00003877       0.00001969
O       16.22014652      10.80146663       0.43666323       0.00006894       0.00002191       0.00002359
O       17.46940403      12.96520151       3.99005497      -0.00000481       0.00001416       0.00001340
O       17.46448277       8.64628916       3.99005439      -0.00001927      -0.00000995       0.00001593
O       17.46729726      12.96523326       6.64903983      -0.00002529      -0.00002795       0.00001335
O       17.46554487       8.64448876       6.64904200       0.00000448      -0.00004103      -0.00000358
O       12.47637037       8.64448057       3.09568565       0.00000943       0.00000564       0.00000466
O       19.96009296      12.96517087       3.09565151       0.00003692       0.00002528       0.00002459
O       16.21911199      10.80327568       3.09565025      -0.00000410       0.00003581       0.00002867
O       21.20723729      10.80147099       3.99006989      -0.00000958      -0.00003693       0.00000545
O       21.20828484      10.80330335       6.64903325       0.00000928       0.00002348       0.00002798
H       12.48503885       8.65950016       8.55173540      -0.00003344      -0.00005604       0.00002670
H       16.20002747       6.48252814       8.55168931       0.00002416       0.00005479       0.00000450
H       16.22774692      10.78827932       8.55168745       0.00003505       0.00005362       0.00000992
H       17.48460380      12.96523380      12.10507920       0.00001876      -0.00005890      -0.00000327
H       21.19963296      10.78830816      12.10509768       0.00000505       0.00000021      -0.00002253
H       17.45690394       8.65946922      12.10507832      -0.00006069      -0.00001151       0.00000219
H       15.25419404       6.48253377       7.23086981       0.00001439       0.00009530       0.00000702
H       12.95795583       9.47863029       7.23092759       0.00000079      -0.00003043      -0.00009201
H       16.70066647       9.96917062       7.23086708       0.00005506       0.00004994       0.00000513
H       18.43045867      12.96520378      10.78427115      -0.00004739      -0.00004144      -0.00001758
H       20.72671309       9.96917320      10.78428706      -0.00001801      -0.00000939      -0.00000868
H       16.98395218       9.47858436      10.78426900       0.00000826      -0.00004532      -0.00002188
H       16.98171923      12.15276302      14.10626893      -0.00003484      -0.00000153       0.00003104
H       16.98174746      13.77771279      14.10630424      -0.00003767      -0.00006144      -0.00002020
H       20.74744633      11.63005910      14.10627568       0.00000571      -0.00002023      -0.00002264
H       18.41194785       8.63023146      14.10630348      -0.00002406      -0.00007501      -0.00000594
H       17.00471598       7.81772880      14.10627135       0.00001289      -0.00001148       0.00002959
H       12.93721016       7.81772428      10.55291969      -0.00002915      -0.00000031      -0.00002013
H       20.44566949      13.77763757      10.55289581       0.00000850       0.00004465      -0.00001104
H       20.44566468      12.15269883      10.55290074       0.00000539       0.00002605       0.00000094
H       15.27270592      10.81755395      10.55290063       0.00000781       0.00002664       0.00000659
H       16.67993912      11.63003124      10.55289729       0.00003854       0.00001326      -0.00002073
H       11.52995899       8.63019801      10.55292264       0.00002639      -0.00001446      -0.00002630
H       22.15469513      10.81758611      14.10627866      -0.00002995      -0.00001740      -0.00003042
O       12.47743369       8.64632947       7.54346232      -0.00000337       0.00004123       0.00002600
O       16.21524414       6.48254679       7.54341653      -0.00001417       0.00003877       0.00001969
O       16.22014687      10.80146723       7.54341491       0.00006894       0.00002191       0.00002359
O       17.46940438      12.96520211      11.09680665      -0.00000481       0.00001416       0.00001340
O       17.46448312       8.64628976      11.09680607      -0.00001927      -0.00000995       0.00001593