36
Lattice="7.611101388161894 0.0 0.0 3.8055501984434557 6.591406567460867 0.0 0.0 0.0 7.171445166977049" Properties=species:S:1:pos:R:3:momenta:R:3:forces:R:3 energy=-178.0276641845703 stress="0.0013435645960271358 -0.00019373850955162197 -0.002285492140799761 -0.00019373850955162197 0.003164198249578476 -0.0012425738386809826 -0.002285492140799761 -0.0012425738386809826 -0.009630244225263596" free_energy=-178.0276641845703 pbc="T T T"
H        1.28253538       2.26141060       1.57443277       0.04760072       0.06672254       0.01096917      -0.04969392      -0.19254687       0.20338738
H        5.02735790      -0.04108158       1.43789899       0.03925781       0.17740615      -0.00048062       0.08173735       0.17975350       0.58848566
H        5.07154173       4.36882529       1.45350833       0.07169667       0.03952042      -0.09649629       0.12024533       0.02239920       0.31082693
H        6.38886496       6.54381862       4.98258004      -0.07757921       0.01807321       0.03025494       0.05572633      -0.05556953       0.69455099
H       10.20853392       4.45493079       5.02414622      -0.07182441      -0.15411075      -0.03091853       0.04873824       0.22876817      -0.43511242
H        6.30099960       2.24198243       4.97067395       0.08572353      -0.08404188       0.00428826      -0.08315632      -0.23494093       0.75683212
H        4.09239402      -0.04551865       0.15307428      -0.17683632      -0.01041855       0.09388385      -0.07355981       0.20410639      -0.19638823
H        1.75536213       3.06293877       0.27544178       0.01482432       0.03213651       0.03829425      -0.20192254      -0.47559956      -0.07695974
H        5.50343137       3.52196340       0.14326302      -0.01161403      -0.07873904       0.07458806       0.10653463       0.44307923       0.06847353
H        7.28612439       6.60140007       3.62587719       0.03971934       0.00441090      -0.00583574       0.21366692      -0.04703857       0.16930193
H        9.68600041       3.57975627       3.82882505       0.03845809       0.05792974       0.02350690       0.28349978       0.48899806      -0.28706098
H        5.88160194       3.02760034       3.66337905       0.04304764       0.13387681       0.00558420      -0.26034421       0.39023176      -0.22643338
H        5.83665274       5.74297450       7.19155188      -0.02623796       0.08093934       0.09763891       0.09574460       0.62530392      -0.62632740
H        5.84117945       7.41096016       7.03570795       0.12364596      -0.03186158       0.07868152       0.01588789      -0.37921211       0.21266887
H        9.68723247       5.19562401       7.17767012       0.18816564       0.01624540       0.29848717      -0.30115968       0.51458901      -0.15436065
H        7.31320481       2.11136423       7.00481474      -0.08693710       0.05715247       0.03331466      -0.38273785      -0.02674111       0.27428678
H        5.85980746       1.34390649       7.15896926       0.00657394       0.01764405       0.11345587       0.18115044      -0.09609775      -0.25331923
H        1.66901686       1.26502712       3.48447686      -0.07930398      -0.11017834       0.05256160      -0.16918738       1.15599990      -0.12178526
H        9.38907209       7.43441666       3.35720831       0.08306429      -0.06117604       0.13733901       0.16122499       0.27265400       0.31332648
H        9.32799349       5.82827781       3.42676062       0.00254724       0.15063245      -0.00357769       0.47492176      -0.48781201       0.26609755
H        4.18397985       4.39201067       3.42492512       0.18316413       0.05592828       0.01629061      -0.68735552       0.11449241       0.21825168
H        5.53089852       5.25610286       3.39703616      -0.11355712       0.00977479       0.12730450       0.19695640       0.16537257       0.16478017
H        0.27265207       2.12864855       3.53124292      -0.07413721      -0.04983579       0.09306744       0.97474051       0.25355110      -0.29184753
H       11.05610716       4.43126654       7.17652427      -0.08418028       0.21067822       0.23323564       0.74523008      -0.04728301      -0.03165779
O        1.29382505       2.21071649       0.57640224      -0.18025100      -0.27837302      -0.70031018       0.24939772       0.60044897      -0.59440881
O        5.04562935       0.03922399       0.45016254       0.41502862      -0.07535183      -0.75219679      -0.21378785      -0.39181954      -0.61334437
O        5.11224532       4.40414733       0.45496280      -0.20346041       0.02879913      -0.74686580      -0.07259911      -0.64674616      -0.51782554
O        6.36276458       6.51301851       3.99627576      -0.25848054      -0.18179994      -0.16236143      -0.24877219       0.26408857      -0.71445310
O        6.27029471       2.17672233       3.98793641      -0.11191292      -0.51648502      -0.16410747       0.44655609      -0.04683796      -0.39375994
O        6.26678477       6.55619106       6.71713601       0.45331429      -0.24796896       0.44790045       0.09830882      -0.15338828       0.22850795
O        6.34798396       2.11168199       6.71989356      -0.51647343       0.30715595       0.57214108       0.20532347       0.46389547      -0.13099419
O        1.26594857       2.19169938       3.23765164       0.24490941       0.35106837      -0.15834078      -0.71384579      -1.24746609       0.65488434
O        8.91587032       6.62666161       3.02590674      -0.39305891      -0.02193429      -0.16012564      -0.82819939      -0.04868718      -0.14937863
O        5.08704855       4.43811712       3.03463597       0.10996517      -0.31701618      -0.13316692       0.40196696      -0.49616760      -0.01600488
O       10.18590994       4.45289626       4.00856160       0.23416577       0.44624582       0.68445346      -0.44913870      -0.87571722       0.83922100
O       10.16003726       4.42825923       6.76730686       0.04097225      -0.04304936      -0.15245767      -0.42209834      -0.43806159      -0.13246143
36
Lattice="7.609409803418108 0.0 0.0 3.8047044061817155 6.589941612230211 0.0 0.0 0.0 7.16985129683701" Properties=species:S:1:pos:R:3:momenta:R:3:forces:R:3 energy=-178.0059051513672 stress="-0.0002003028930630535 0.0022652267944067717 -0.0007705525495111942 0.0022652267944067717 0.0016487238463014364 -0.0009202533401548862 -0.0007705525495111942 -0.0009202533401548862 0.0053186798468232155" free_energy=-178.0059051513672 pbc="T T T"
H        1.30874946       2.23345927       1.56417085       0.05677425       0.09496799      -0.10719209      -0.06120987       0.03120103      -0.58970463
H        5.07763384       0.00305440       1.43576902       0.13254985      -0.11991939       0.07831836      -0.34176451      -0.06625775      -0.07544994
H        5.08760726       4.40758778       1.44417590      -0.11517309       0.10028125       0.15675431       0.02651506      -0.34842485      -0.22231176
H        6.35048838       6.65407311       5.09189621       0.07463122       0.02990501       0.11166890       0.02897187      -0.20055890      -0.83380824
H       10.07099777       4.26680943       5.08503807       0.00452003      -0.02039907      -0.16035125       0.08540282       0.15880404      -0.20776282
H        6.39136971       2.25690577       5.07594197      -0.02616293       0.03083051       0.14967651      -0.13993454      -0.12708351      -0.47043917
H        4.10440449       0.11300732       0.09783961       0.03366568      -0.09994874      -0.12263619      -0.35000917      -0.11206497       0.24330436
H        1.78138596       3.05185024       0.17452030      -0.03143454      -0.07836427       0.03059388      -0.05701040      -0.02166165       0.32291558
H        5.67316269       3.59109232       0.11077091      -0.15155738       0.05428368      -0.14426910      -0.17538631      -0.04364527       0.34720176
H        7.30355539       6.65536702       3.73118170       0.10372061      -0.09085278      -0.04308069      -0.11091777      -0.19213061       0.14923902
H        9.63572821       3.50192339       3.71410728       0.00917674       0.05388076       0.14359465      -0.03372868       0.00277580       0.09467117
H        5.93824593       3.06843205       3.73027394      -0.13653543       0.02397344      -0.02820750      -0.20194533      -0.06651964       0.03716563
H        5.80880082       5.85165279       7.10402849       0.01708189      -0.13043577       0.02071998      -0.15587460       0.09436782      -0.13866775
H        5.71702283       7.48202439       6.95298719       0.03891336       0.08339751       0.06165405      -0.32305649       0.54464805       0.75567293
H        9.67117073       5.22914948       7.06181919       0.10116863      -0.00708264      -0.05066531       0.21250772       0.23342501       0.19671777
H        7.43560779       2.11890979       6.92906911       0.03687070       0.03651074      -0.00531486       0.63489997      -0.04357875       0.81882143
H        5.99086298       1.35117257       7.08913203      -0.07961999       0.04107768       0.05555144       0.20258628       0.06306823      -0.11534052
H        1.78411099       1.34208007       3.47213260      -0.06615509       0.03861622       0.02103491      -0.73022479      -0.01886197       0.15002550
H        9.39554296       7.39459638       3.41107159      -0.12198198       0.11041404      -0.02164702       0.27741194      -0.13359675       0.26325256
H        9.38967324       5.75295341       3.44620603      -0.09665195      -0.09341574       0.19947892       0.55439627      -0.58587700       0.50356150
H        4.09065767       4.44521922       3.46021711       0.06780700      -0.08914281       0.19694739      -0.67910528       0.12189823       0.38251495
H        5.51659356       5.26367101       3.40691805       0.09468304      -0.07231248      -0.02394548      -0.42014188      -0.11737060       0.12401968
H        0.25946946       2.17034977       3.46502909      -0.01709486       0.01572349       0.11410913       0.40332434      -0.48688221       0.17590609
H       11.12932266       4.36823663       7.05585849      -0.00624196       0.09538744      -0.08088517      -0.25429806       0.39181390       0.09934498
O        1.29581296       2.24484553       0.53291551      -0.25282464      -0.37705021       0.69197140       0.18635823       0.13131550      -0.13821611
O        5.02924434      -0.01644152       0.42797355       0.11846409      -0.08461910       0.77825190       0.66995513       0.21197043      -0.17406100
O        5.08878959       4.34128798       0.43136609      -0.19696745      -0.07642926       0.60668568       0.12616366       0.34587014      -0.17331949
O        6.35444249       6.60513440       4.05117715      -0.43490377       0.46641368      -0.84917923       0.28112215       0.19145334       0.60316241
O        6.35373143       2.22009456       4.05125739       0.55266737      -0.14857460      -1.00595943       0.02336136       0.24754059       0.34234887
O        6.22442586       6.67490257       6.70845029       0.35717668      -0.09277629       0.02905787       0.72881460      -0.83220649      -0.61560094
O        6.47559337       2.15157143       6.71936231      -0.28589548       0.18182987       0.20191403      -1.17969620       0.10130930      -0.65058255
O        1.21557413       2.10983011       3.12406717      -0.05141806      -0.39918557      -0.57561687       0.36672926       0.46522212      -0.14817622
O        8.97468487       6.55749571       3.07187252       0.00680522       0.17597108      -0.03306062      -0.90174949       0.83403373      -0.54174596
O        4.98725944       4.47723629       3.05963699       0.06473067       0.05134571       0.03518167       1.28463674      -0.00792379      -0.24278104
O       10.09755262       4.31632053       4.07436065       0.01975297       0.06145365      -0.50708296      -0.01206449      -0.03562041       0.03944589
O       10.17017863       4.42684599       6.73807865       0.17945857       0.23424497       0.07592880       0.03496062      -0.73045242      -0.31132400
36
Lattice="7.599690574685578 0.0 0.0 3.799844792448381 6.581524513990307 0.0 0.0 0.0 7.160693500564713" Properties=species:S:1:pos:R:3:momenta:R:3:forces:R:3 energy=-177.9899444580078 stress="0.0016179962549358606 0.0001966923155123368 -0.001374041079543531 0.0001966923155123368 0.0027939684223383665 -0.0012353708734735847 -0.001374041079543531 -0.0012353708734735847 0.009859534911811352" free_energy=-177.9899444580078 pbc="T T T"
H        1.23753845       2.13574895       1.36090112       0.02464961       0.04769871       0.10303320       0.19287318       0.34474570       1.21351624
H        4.97923113      -0.02543946       1.45916984      -0.10497880       0.07092842      -0.06622168       0.03284446       0.18639061      -0.96169513
H        5.08251603       4.29872075       1.45593326       0.10313112      -0.05848725      -0.09140575       0.17757112       0.09049594      -0.93176448
H        6.38180988       6.62074864       5.05337997       0.00003991       0.03426688      -0.07690932       0.16223264      -0.11292119      -0.96209300
H       10.10759883       4.34354769       5.09365479      -0.07473848      -0.11511613       0.15378306      -0.14070398      -0.23864689       0.21099699
H        6.36579452       2.25864767       5.05521111       0.03937100       0.00552214      -0.08090150      -0.25257051       0.05915709      -1.04555583
H        4.00742585       0.02325727       0.13689470       0.07052602      -0.15739753      -0.03753883      -0.40830427      -0.03207033      -0.16756701
H        1.79483651       3.10216045       0.14037680      -0.08421347      -0.15662965       0.08074458      -0.24981603      -0.42397267       0.27192190
H        5.60830344       3.47635576       0.12397391      -0.16263023      -0.03308208      -0.03401915       0.13341388      -0.24822190      -0.06616851
H        7.32627754       6.63892224       3.67095350       0.02948487      -0.01840912       0.06545730       0.27295342      -0.11244598       0.29128158
H        9.65791804       3.57591961       3.69927613       0.15613899       0.26851640      -0.07684251      -0.17679915      -0.32488203       0.24670999
H        5.90253418       3.08918202       3.67596156      -0.00532342      -0.01072183       0.04686670      -0.26698592       0.17574534       0.27043042
H        5.95866911       5.64952147       7.13662686       0.05850179       0.05641587      -0.02112235      -0.33281615       0.76952183      -0.26986009
H        5.85158880       7.34893994       7.10298330      -0.03528086       0.04200412      -0.01913435      -0.26514444      -0.05808732       0.02842311
H        9.62394464       5.23429987       7.06971203      -0.01194883      -0.02941906       0.06721529       0.65351188      -0.00660726       0.15815525
H        7.22822529       2.17182852       7.10075807       0.05161464      -0.02715187      -0.01163688       0.41809219      -0.31090599       0.20766409
H        5.70972316       1.40756763       7.12707407       0.02088771       0.08297905       0.00030626       0.79026824      -0.03960347      -0.15347213
H        1.70967569       1.28652298       3.29417774      -0.14785743      -0.00018472       0.03957377      -0.39779204       0.22802597       0.36868051
H        9.39026080       7.42094835       3.46568370       0.15767024       0.20831914      -0.08855832      -0.07477242       0.09570971       0.04038624
H        9.37289497       5.81298069       3.52377635      -0.00131641       0.06137808      -0.12454662       0.04056799      -0.22696742       0.01969101
H        4.15203148       4.43923646       3.53244842       0.02023881       0.02087214      -0.10446121      -0.09170809      -0.05944386      -0.04911672
H        5.53317366       5.25952848       3.47013606       0.09697592       0.23509651      -0.09812207       0.24136600       0.25351781       0.11973903
H        0.25115688       2.12069426       3.28477559       0.10579411      -0.11144456       0.06087514       0.45031884      -0.22291842       0.38106900
H       11.12580190       4.37101845       7.07031270      -0.05365419      -0.02289966       0.06510942      -0.31268129       0.56038916       0.16295046
O        1.29434882       2.24529831       0.39333284      -0.20141428      -0.34395935       0.35900352       0.01373113       0.00051222      -1.64039922
O        4.96572928       0.03903123       0.42464664       0.37324370       0.53475972       0.48581814       0.65354317      -0.17280082       1.30923057
O        5.14772149       4.31809830       0.42315340       0.26051637       0.58114632       0.53788972      -0.44755870       0.40303281       1.21216094
O        6.39076445       6.58775223       4.01984508      -0.56521181      -0.35150289       0.20910653      -0.56663769       0.13701585       0.75898504
O        6.31202677       2.24486220       4.01979921      -0.07674780      -0.59461057       0.20892821       0.43621829      -0.41265994       0.82648158
O        6.31354774       6.53548162       6.74633555      -0.29782412      -0.01582427      -0.10092662       0.18293522      -0.48007432      -0.10332136
O        6.30243905       2.15426740       6.74901757       0.12942196      -0.23927922      -0.10104966      -0.78871310       0.09591717      -0.39389092
O        1.22154476       2.12034209       3.00389284       0.12426809       0.21925032      -0.34580479       0.01610127       0.07192514      -0.13152407
O        8.90039609       6.60357798       3.14072760      -0.15392709      -0.07088284      -0.63410911       0.02409977       0.10594675      -0.19880962
O        5.07344329       4.43690129       3.14093612       0.04573827      -0.18544003      -0.63575520      -0.19407630      -0.25151888      -0.22220074
O       10.11582132       4.36008225       4.09571564       0.21655918       0.35122662      -0.02207522       0.30063829       0.49292517      -0.52928686
O       10.16039669       4.42938879       6.77101044      -0.10770508      -0.27793781       0.28743035      -0.22620060      -0.33622560      -0.27174693
36
Lattice="7.616532533778255 0.0 0.0 3.80826577089795 6.596110077118488 0.0 0.0 0.0 7.176562581789322" Properties=species:S:1:pos:R:3:momenta:R:3:forces:R:3 energy=-177.9159393310547 stress="-0.003724786452949047 0.00231666280888021 0.004175592679530382 0.00231666280888021 -0.00039581142482347786 0.0006041710148565471 0.004175592679530382 0.0006041710148565471 0.005359596107155085" free_energy=-177.9159393310547 pbc="T T T"
H        1.22119355       2.14327987       1.41211138       0.02786897       0.05320714      -0.11010937       0.17669129       0.32511845      -0.80490696
H        5.10897689      -0.00378085       1.30821448      -0.08602658       0.02268926       0.01153833      -0.06239884       0.17532849      -0.12591866
H        5.09688458       4.40598815       1.32368973       0.08900684      -0.05950759      -0.02041062       0.12103979       0.04249147       0.12945871
H        6.30119018       6.64838888       5.09490659       0.01167645      -0.04334698      -0.01735502       0.00811865      -0.11378017      -0.29069597
H       10.11187006       4.37304981       5.05593447      -0.06898145       0.04719511      -0.08741610       0.05738437      -0.11251110      -0.00607289
H        6.33071136       2.10540924       5.09390120      -0.10865041      -0.00965935      -0.07712731       0.14706062       0.28999963      -0.08777653
H        4.11903584      -0.07695444       0.06065375      -0.05090737       0.04962146       0.01769767      -0.16361114       0.33909133      -0.08853769
H        1.71158286       2.92365139       0.05666643      -0.03590096      -0.16007706       0.04042433       0.52692544       0.98999834      -0.00413530
H        5.50902603       3.57282266       0.04013007       0.09349939      -0.05065421       0.05784471       0.57652849      -0.64384437      -0.17977482
H        7.26897303       6.63884867       3.83145083      -0.10982320       0.19899756       0.05727659       0.40857038      -0.12222064      -0.37856963
H        9.72616673       3.60832548       3.63365114       0.06795922       0.03894168      -0.11928047       0.60679191       1.25705421       0.99771416
H        5.90696961       3.01240449       3.82657232       0.17416605       0.09718800      -0.06451104       0.00997181      -0.14934687      -0.11809811
H        5.95220483       5.70117217       6.96262685      -0.08288179       0.05607222      -0.02711491      -0.03246760       0.74007046       0.34557736
H        5.93992867       7.35625919       7.18007397      -0.13260250       0.02228618      -0.01541508      -0.49054003       0.21417500       0.05175939
H        9.66583467       5.19715544       6.99002783       0.04105880       0.14283683      -0.02912471       0.43801907      -0.22603589       0.19714814
H        7.26565643       2.23864187       7.11038696       0.07260448      -0.04964715      -0.06926495      -0.28565395      -0.23645897      -0.04336917
H        5.77607688       1.44582019       7.05597646       0.05381889      -0.07314307      -0.10647440       0.66329944       0.35869628       0.00338533
H        1.73396325       1.39044550       3.41310843      -0.16013482       0.01723529       0.23100566       0.06082127      -0.18710364       0.28292233
H        9.22527805       7.41230357       3.62930856       0.08759934      -0.03949292       0.03406662       0.13364795       0.09867349      -0.41580617
H        9.21357139       5.83512530       3.47443856       0.05182623      -0.06085530       0.05023079       0.07562321       0.03571597       0.03238242
H        4.24744889       4.31409861       3.45083977      -0.05910672      -0.03464628      -0.02398491      -0.08238029       0.26604834       0.22686607
H        5.62976892       5.12961976       3.52978719      -0.01274377       0.02813430      -0.06738004       0.05970338       0.53010571       0.19670111
H        0.37042755       2.19545279       3.40166582       0.03890526      -0.20306967      -0.02516686      -1.29209471      -0.07119000       0.67791927
H       11.12887238       4.35844062       7.01906926      -0.01261574       0.03661838      -0.00209319      -1.02844775       0.27129138      -0.01457597
O        1.21962752       2.14259965       0.38543513      -0.07295003      -0.07183931       0.32524821      -0.59265202      -1.16223550       1.17852569
O        5.09134839       0.05379067       0.31000648      -0.18562735       0.32291367      -0.42547103       0.30205867      -0.40814012       0.53075278
O        5.10987895       4.43549891       0.32893795       0.11860171      -0.16590440      -0.33795390      -0.73515856       0.62128204       0.26697040
O        6.31026898       6.55734316       4.08862833       0.39899481      -0.48058161      -0.17848527      -0.66196692       0.28909993       0.48987463
O        6.35422716       2.14493419       4.08958603      -0.47898544       0.30573788      -0.09168472      -0.05153395      -0.18140775       0.10665978
O        6.42649343       6.59147853       6.78018056       0.35906435       0.05738761       0.57410781       0.14359555      -0.94107544      -0.46509719
O        6.30760476       2.28038730       6.77834720      -0.20925489       0.18794155       0.70061976      -0.31734759      -0.51904869      -0.08786832
O        1.29557843       2.23620277       3.11696698       0.01246874       0.20577499       0.02623295       1.24713373       0.17204870      -0.86754107
O        8.73450636       6.65967798       3.16874891      -0.28238601      -0.33426813      -0.50354514       0.36247554      -0.18257277       0.10713208
O        5.20002880       4.31608192       3.15894714      -0.08056629      -0.53511080      -0.27904397      -0.25518161      -0.52263701      -0.49230394
O       10.19329836       4.45898070       4.06182747       0.31812268       0.46199882       0.21197226      -0.76773393      -1.33399165      -1.18385780
O       10.12270612       4.32156930       6.77846039       0.21290312       0.01902597       0.34014732       0.69370842       0.09731256      -0.16684338
36
Lattice="7.615296514237444 0.0 0.0 3.8076477612080333 6.5950396528916455 0.0 0.0 0.0 7.175397961071477" Properties=species:S:1:pos:R:3:momenta:R:3:forces:R:3 energy=-178.00323486328125 stress="0.0019370834343135357 -0.0026834227610379457 -0.0015804650029167533 -0.0026834227610379457 -0.0006933622644282877 -5.6437002058373764e-05 -0.0015804650029167533 -5.6437002058373764e-05 0.00021395468502305448" free_energy=-178.00323486328125 pbc="T T T"
H        1.36983171       2.18435259       1.40819969      -0.08682775      -0.10581361      -0.06290829      -0.12633413       0.13319170       1.05425072
H        5.07239086      -0.05833751       1.64579349      -0.04821900      -0.02096844       0.12566304      -0.06914174      -0.01427399      -0.75636637
H        5.05967364       4.41186325       1.62430950       0.03344511       0.07104706       0.02377347      -0.08791509      -0.25628161      -0.74955082
H        6.37364899       6.55934837       4.98219290      -0.04395250      -0.11242113       0.06798629      -0.06583659       0.27706876       0.23905574
H       10.12629104       4.32909247       4.95151870       0.05449422       0.13259238       0.22284248      -0.00819958       0.11722831      -0.22777835
H        6.31517881       2.27644083       4.98472172      -0.08914715      -0.16364488       0.04363164       0.28885621      -0.13499673      -0.30196816
H        4.19042659      -0.02868012       0.23235866       0.07042784       0.12547324      -0.05922133      -0.15475917      -0.00308541       0.19846600
H        1.73263224       3.02521915       0.09045805       0.03458313      -0.00679088      -0.23299262       0.22363466       0.25541911      -0.02266419
H        5.48188680       3.60700469       0.22524918       0.13894703      -0.02255675      -0.08528934      -0.04985628       0.14047077       0.35963759
H        7.32861046       6.72748725       3.69578801      -0.07274027       0.13960326      -0.00756330      -0.30587009      -0.29928482       0.13299561
H        9.58711977       3.55116783       3.63989999       0.04807632      -0.03969250       0.03068375      -0.11570603      -0.59593856      -0.30117166
H        5.98908160       3.09124473       3.65372335       0.18884999      -0.08707817      -0.00835519      -0.46333820       0.26849413      -0.04374872
H        5.80344575       5.85724544       7.05252213       0.01889329      -0.06644371      -0.07369972      -0.38296890      -0.57632172       0.38209444
H        5.83265982       7.45613414       6.98533038       0.01704658      -0.02395313      -0.18202140      -0.06598236       0.01873362       0.17481229
H        9.66175661       5.16069292       7.11024211      -0.09544681      -0.05803024      -0.11961406      -0.12363564       0.37814426       0.02106355
H        7.34203814       2.15419164       6.96074875      -0.04580716      -0.08678592      -0.12576212       0.08808090       0.03060962       0.32505411
H        5.99427546       1.30940112       7.06959196      -0.01668851      -0.06704860      -0.22821492      -0.19359264      -0.11485292       0.15227720
H        1.78770675       1.38175333       3.40050449       0.12838391      -0.00813101      -0.09683168      -0.86338651       0.64398122      -0.01474851
H        9.44991663       7.34427042       3.49754014      -0.14464364       0.06805019       0.00736580       0.22792232       0.11158186       0.12797497
H        9.38868338       5.66250991       3.50523217       0.05380213       0.04443907      -0.04879564      -0.06042655       0.72748721      -0.05499629
H        4.01952781       4.38218983       3.51214497      -0.07361088       0.02986049      -0.14124302       0.83243990       0.08679389      -0.25502786
H        5.39806128       5.30023311       3.44177165       0.12072986      -0.19550457       0.01924721       0.18686980       0.12457333       0.24136764
H        0.28442921       2.24502024       3.32282762      -0.04958153       0.06044408      -0.07945157       0.81444335      -0.47517189       0.22038433
H       11.04531757       4.39871777       7.09236171      -0.07765898      -0.13138205      -0.02578014       0.62207711       0.00811234       0.18538254
O        1.28637080       2.20609697       0.43162958      -0.16982533      -0.14964016       0.58643719      -0.09966982      -0.24876066      -1.45667100
O        5.10690826      -0.08606642       0.60930006       0.39664605       0.04748344       0.19940230       0.12960051       0.04993271       0.09414592
O        4.99814088       4.40269465       0.59298938      -0.17278881       0.43586334       0.32333568       0.18129236      -0.05379219       0.00189550
O        6.35923340       6.68611495       3.98994232      -0.78477084       0.29711428       0.10537650       0.38149548       0.01304122      -0.35903776
O        6.41736223       2.25691515       3.97524375       0.55481006      -0.51052430       0.19027745      -0.01914690      -0.25498888       0.48180115
O        6.29977055       6.61888437       6.69089561       0.11821449       0.12984802      -0.04087917       0.63683540       0.29614311      -0.51894408
O        6.37571067       2.15246864       6.71010254       0.12014414       0.39340858       0.01148934      -0.20564444       0.21239822      -0.40515983
O        1.26945132       2.20435073       3.02902593      -0.10080616      -0.30074328       0.25963723       0.12075648      -0.29442027       0.34034765
O        8.94833092       6.54408966       3.19406238      -0.16439139       0.21571259      -0.26046514      -0.29139602      -0.39599183       0.09925094
O        5.01231690       4.41820297       3.20841873       0.37160056       0.15669601      -0.32176064      -0.60392392      -0.12943169       0.04462042