3
Properties=species:S:1:pos:R:3:forces:R:3 energy=-14.051504878160236 stress="inf inf inf inf inf inf inf inf inf" free_energy=-14.051504878160236 pbc="F F F"
H        0.00000000      -0.05795203      -0.36530765       0.00000000       0.00000000       0.00000000
O        0.00000000       0.71231119       0.23131709      -0.00000000      -0.00000000       0.00000000
H        0.00000000       0.34564084       1.13399055       0.00000000       0.00000000      -0.00000000
