3
Properties=species:S:1:pos:R:3:forces:R:3 energy=-14.285827697209658 pbc="F F F"
H        0.00000000      -0.06511652      -0.34814085      -0.00000000      -0.00000005      -0.00000005
O        0.00000000       0.71673382       0.22554022       0.00000000       0.00000002       0.00000012
H       -0.00000000       0.34838270       1.12260063       0.00000000       0.00000003      -0.00000008
