3
Lattice="100.0 0.0 0.0 0.0 101.0 0.0 0.0 0.0 101.0" Properties=species:S:1:pos:R:3:forces:R:3 energy=-14.170072284496877 pbc="F F F"
H       50.00000000      49.94012955      49.64496533       0.00000000       0.00000697       0.00001164
O       50.00000000      50.71831144      50.22898932       0.00000000      -0.00001537       0.00002161
H       50.00000000      50.34155900      51.12604536       0.00000000       0.00000840      -0.00003325
