6
Lattice="4.500081 0.0 0.0 0.0 4.83274 0.0 0.0 0.0 4.286044" Properties=species:S:1:pos:R:3:forces:R:3 #=T CELL(abcABC):=T 200.00000=T 90.00000=T Step:=T 67=T Bead:=T 0=T positionsangstrom=T cellatomic_unit=T energy=-28.56131077512599 stress="-2.2101864946424146e-11 1.7347633529973944e-11 -9.021491378272e-12 1.7347633529973944e-11 -3.2451867214821875e-11 -1.391287569371224e-11 -9.021491378272e-12 -1.391287569371224e-11 -4.414210307466448e-11" free_energy=-28.56131077512599 pbc="F F F"
O        1.91031054       1.48797291       1.68500460       0.00005223       0.00002647       0.00004075
H        0.95680556       1.52333053       1.49010682      -0.00003960       0.00001466      -0.00001288
H        2.29659355       0.93971517       0.97888357      -0.00000083      -0.00003974      -0.00003333
O        3.22960423       3.87764084       2.41137549      -0.00001405       0.00003827      -0.00003846
H        3.52900870       3.76640825       3.32702571       0.00001111      -0.00001298       0.00003353
H        2.77521342       3.03561329       2.18337191      -0.00000887      -0.00002668       0.00001039
