24
Lattice="4.412173326206757 0.0 0.0 0.0 7.663488094975255 0.0001243032473494 0.0 0.0001170212828762 7.199592113006748" Properties=species:S:1:pos:R:3:forces:R:3 energy=-119.77933275963713 pbc="T T T"
H       -0.00000339       4.12935162       0.13764781       0.00000074      -0.00002097      -0.00001190
H       -0.00000338       5.08258961       1.43818766       0.00000073      -0.00001227       0.00000872
H       -0.00000337       3.53419523       3.73742343       0.00000071       0.00001735      -0.00001104
H       -0.00000337       2.58096437       5.03795515       0.00000070       0.00003725       0.00001632
H        2.20608510       1.25082015       1.43809374      -0.00000075      -0.00000355       0.00002808
H        2.20608513       0.29758566       0.13753939      -0.00000081      -0.00000945       0.00001902
H        2.20608514       6.41275191       5.03793766      -0.00000082       0.00000735       0.00005393
H        2.20608511       7.36597463       3.73739964      -0.00000075      -0.00000017       0.00002671
H        1.40032337       5.88015567       7.08468759      -0.00002428      -0.00001347       0.00000209
H        3.01184421       5.88015501       7.08468802       0.00002404      -0.00001321       0.00000193
H        1.40032057       1.78352376       3.48483977      -0.00001323       0.00001905      -0.00001169
H        3.01184698       1.78352441       3.48484019       0.00001300       0.00001879      -0.00001184
H        0.80576052       2.04840655       7.08466143       0.00001900      -0.00001155      -0.00000802
H        3.60640851       2.04840577       7.08466194      -0.00001857      -0.00001101      -0.00000834
H        0.80576016       5.61525821       3.48490216       0.00001800       0.00001906      -0.00001897
H        3.60640889       5.61525899       3.48490267      -0.00001757       0.00001855      -0.00001932
O       -0.00000361       5.09095861       0.43415683       0.00000063       0.00002401      -0.00002795
O       -0.00000360       2.57258441       4.03392338       0.00000061      -0.00002393      -0.00002132
O        2.20608542       1.25918924       0.43406359      -0.00000088       0.00003782      -0.00000798
O        2.20608543       6.40436456       4.03390901      -0.00000088      -0.00004212       0.00001403
O        2.20608399       6.37810671       6.74787391      -0.00000015       0.00002682       0.00000557
O        2.20608397       1.28558930       3.14800580      -0.00000014      -0.00005065       0.00001503
O        4.41217095       2.54637053       6.74787040       0.00000033       0.00002108      -0.00002559
O        4.41217096       5.11729905       3.14810394       0.00000033      -0.00003478      -0.00000746
