384
Lattice="14.61935888153885 -0.05015458041046388 -0.0001869962172285633 4.928971867471406 13.763481102928738 -0.00018689239833397098 4.96278608426234 3.4814369187644334 13.335741146785697" Properties=species:S:1:pos:R:3:forces:R:3 energy=-1910.0638322213813 stress="-4.362840592539094e-07 -1.146495760743854e-06 1.331313648584289e-06 -1.146495760743854e-06 7.158364681587176e-07 3.772880653636431e-07 1.331313648584289e-06 3.772880653636431e-07 -2.556610771086397e-06" pbc="T T T"
H        6.61276829       7.08994521       5.94544998       0.00000376      -0.00000914      -0.00002938
H        7.69132821       7.89233748       5.03736545      -0.00002024      -0.00001227       0.00001310
H        3.29742191       1.88830097       4.49935851       0.00005223       0.00002946      -0.00003423
H        6.94292786       5.92805034       4.25198080      -0.00004805       0.00001055       0.00003689
H        9.09481266       4.89843012       6.40319708       0.00004528      -0.00003337       0.00002082
H        5.66140307       1.43690051       0.69095336       0.00001339      -0.00001771       0.00001196
H        9.80927112       3.20396160       4.86617888      -0.00000808       0.00004129      -0.00002320
H        8.09584686       4.40723004       5.25415703       0.00001046      -0.00000069      -0.00000966
H        7.53345323       3.80915692       1.53225211       0.00000351       0.00001737      -0.00001707
H        6.54435665       5.01571592       1.16529514       0.00005707      -0.00000258      -0.00001037
H       10.75379413       7.17750059       6.65512995       0.00000497       0.00003429      -0.00004113
H        8.50397725       7.32350291       1.88966186       0.00006207      -0.00001720       0.00001156
H        6.37578055       7.12871598       1.70332498      -0.00000491       0.00001422      -0.00001240
H        5.30619689       2.65629149       2.37979733       0.00004007      -0.00000673      -0.00002416
H       10.10432193       5.99819506       3.14616516      -0.00000467      -0.00005610       0.00001861
H        2.87497836       4.96278502       1.26407834       0.00002265       0.00002560       0.00002050
H        8.60100226       5.46104983       2.97686006      -0.00004401      -0.00001960       0.00000929
H        4.46311740       5.33788781       4.59795204       0.00004061       0.00002602       0.00002862
H        5.25419345       6.38769003       2.61141438      -0.00001958      -0.00005803      -0.00000416
H        4.15865423       6.86669622       4.72177197      -0.00004019      -0.00000725      -0.00002788
H        5.43289983       4.90138722       6.48021008      -0.00004509      -0.00001079       0.00004159
H        4.20885665       4.15610248       1.38791376      -0.00000223      -0.00005402      -0.00006936
H        6.13436042       2.94548173       5.22374350      -0.00000323       0.00001974       0.00000091
H        6.94137804       2.25120830       4.02496033      -0.00001681       0.00003232      -0.00001816
H       10.43156933       8.38389563       5.71366238      -0.00001506       0.00000637       0.00003631
H        4.41613054       3.67067490       6.31087857       0.00001758      -0.00004620       0.00002821
H        8.88353018       2.56059454       3.06930940      -0.00003202       0.00002869      -0.00003197
H        4.28153230       3.36985096       3.32130774      -0.00001028       0.00004184      -0.00001198
H        8.08161276       1.78849698       1.92026531       0.00003655       0.00001114       0.00004470
H        1.80954284       0.21188294       0.91809581      -0.00002924      -0.00005341       0.00003970
H        0.35521980       0.21546592       0.20426525       0.00000646      -0.00000862       0.00002737
H        6.45128008       4.55935699       3.53812343       0.00000437       0.00000980      -0.00002006
O        6.81415484       7.40883446       5.02189538      -0.00003828       0.00002620      -0.00002010
O        8.75168119       4.08310686       5.93436242       0.00000072       0.00000230      -0.00000187
O        7.20265455       4.37571232       0.77639855       0.00004458       0.00000652      -0.00002847
O        5.37728576       1.13341042       1.59800816       0.00003001      -0.00004022       0.00000760
O        9.35396847       5.89793239       2.48721849      -0.00003159       0.00001185       0.00004969
O        4.22377235       6.13213521       4.03948363      -0.00002091      -0.00002191      -0.00000949
O        3.54032540       4.46736394       0.70561968      -0.00002884      -0.00000475      -0.00000924
O        6.55929677       2.08738195       4.93201500       0.00002515       0.00003523       0.00000116
O        5.08323171       4.22997092       5.82125077      -0.00002930       0.00000925       0.00003091
O        2.91972485       2.72513006       4.11043377       0.00000741       0.00003003      -0.00000344
O        8.00008899       2.51547979       2.60048852      -0.00002428       0.00003732      -0.00001632
O        5.62259242       6.46847607       1.68786166      -0.00001258       0.00001343       0.00000550
O        1.06757809       0.79700291       0.57654146       0.00002106      -0.00003076      -0.00000448
O        5.06386117       3.56399742       2.72564621       0.00001009      -0.00002270      -0.00001496
O       11.20260002       7.84706394       6.05947862       0.00001347       0.00000490      -0.00005165
O        7.24056894       5.03124960       3.91037266      -0.00004408       0.00000836       0.00006021
H        9.09416133       8.83066367      12.61332055       0.00000379      -0.00000917      -0.00002940
H       10.17272125       9.63305595      11.70523603      -0.00002021      -0.00001232       0.00001312
H        5.77881495       3.62901942      11.16722909       0.00005226       0.00002948      -0.00003424
H        9.42432090       7.66876880      10.91985137      -0.00004802       0.00001053       0.00003690
H       11.57620571       6.63914858      13.07106766       0.00004528      -0.00003337       0.00002083
H        8.14279611       3.17761897       7.35882394       0.00001340      -0.00001771       0.00001196
H       12.29066416       4.94468006      11.53404945      -0.00000808       0.00004131      -0.00002320
H       10.57723991       6.14794850      11.92202761       0.00001044      -0.00000070      -0.00000967
H       10.01484627       5.54987538       8.20012269       0.00000352       0.00001737      -0.00001706
H        9.02574969       6.75643438       7.83316571       0.00005709      -0.00000257      -0.00001038
H       13.23518717       8.91821905      13.32300053       0.00000497       0.00003427      -0.00004116
H       10.98537029       9.06422137       8.55753244       0.00006206      -0.00001721       0.00001155
H        8.85717360       8.86943445       8.37119555      -0.00000491       0.00001420      -0.00001240
H        7.78758993       4.39700995       9.04766790       0.00004010      -0.00000674      -0.00002413
H       12.58571497       7.73891352       9.81403573      -0.00000467      -0.00005610       0.00001862
H        5.35637140       6.70350347       7.93194892       0.00002267       0.00002561       0.00002050
H       11.08239530       7.20176829       9.64473064      -0.00004401      -0.00001959       0.00000930
H        6.94451044       7.07860627      11.26582261       0.00004062       0.00002602       0.00002862
H        7.73558649       8.12840849       9.27928495      -0.00001957      -0.00005804      -0.00000415
H        6.64004727       8.60741468      11.38964254      -0.00004017      -0.00000725      -0.00002787
H        7.91429287       6.64210568      13.14808065      -0.00004507      -0.00001080       0.00004160
H        6.69024969       5.89682093       8.05578434      -0.00000220      -0.00005398      -0.00006935
H        8.61575347       4.68620020      11.89161407      -0.00000325       0.00001971       0.00000093
H        9.42277108       3.99192676      10.69283091      -0.00001682       0.00003231      -0.00001818
H       12.91296237      10.12461409      12.38153296      -0.00001506       0.00000634       0.00003629
H        6.89752358       5.41139336      12.97874915       0.00001760      -0.00004622       0.00002819
H       11.36492323       4.30131300       9.73717998      -0.00003201       0.00002869      -0.00003198
H        6.76292534       5.11056942       9.98917831      -0.00001025       0.00004184      -0.00001194
H       10.56300580       3.52921544       8.58813589       0.00003655       0.00001114       0.00004471
H        4.29093589       1.95260140       7.58596638      -0.00002928      -0.00005340       0.00003973
H        2.83661285       1.95618438       6.87213582       0.00000646      -0.00000862       0.00002740
H        8.93267313       6.30007545      10.20599401       0.00000437       0.00000979      -0.00002006
O        9.29554789       9.14955291      11.68976595      -0.00003834       0.00002631      -0.00002009
O       11.23307423       5.82382532      12.60223300       0.00000072       0.00000230      -0.00000188
O        9.68404760       6.11643078       7.44426913       0.00004455       0.00000649      -0.00002848
O        7.85867881       2.87412888       8.26587873       0.00002999      -0.00004025       0.00000758
O       11.83536151       7.63865085       9.15508906      -0.00003159       0.00001183       0.00004969
O        6.70516540       7.87285367      10.70735420      -0.00002094      -0.00002192      -0.00000949
O        6.02171844       6.20808241       7.37349025      -0.00002887      -0.00000481      -0.00000924
O        9.04068981       3.82810041      11.59988557       0.00002519       0.00003524       0.00000117
O        7.56462475       5.97068938      12.48912135      -0.00002932       0.00000928       0.00003089
O        5.40111790       4.46584852      10.77830435       0.00000738       0.00003001      -0.00000344
O       10.48148203       4.25619825       9.26835909      -0.00002428       0.00003733      -0.00001631
O        8.10398547       8.20919453       8.35573223      -0.00001261       0.00001345       0.00000549
O        3.54897113       2.53772137       7.24441204       0.00002109      -0.00003074      -0.00000455
O        7.54525422       5.30471588       9.39351679       0.00001001      -0.00002270      -0.00001503
O       13.68399306       9.58778240      12.72734919       0.00001350       0.00000495      -0.00005160
O        9.72196198       6.77196806      10.57824323      -0.00004407       0.00000835       0.00006019
H        9.07725422      13.97168576       5.94535653       0.00000380      -0.00000918      -0.00002940
H       10.15581414      14.77407804       5.03727201      -0.00002020      -0.00001234       0.00001312
H        5.76190784       8.77004151       4.49926507       0.00005227       0.00002949      -0.00003424
H        9.40741379      12.80979089       4.25188735      -0.00004802       0.00001052       0.00003690
H       11.55929860      11.78017067       6.40310364       0.00004528      -0.00003338       0.00002083
H        8.12588900       8.31864106       0.69085992       0.00001340      -0.00001771       0.00001196
H       12.27375705      10.08570215       4.86608543      -0.00000807       0.00004133      -0.00002320
H       10.56033280      11.28897059       5.25406359       0.00001044      -0.00000070      -0.00000967
H        9.99793916      10.69089747       1.53215867       0.00000352       0.00001737      -0.00001707
H        9.00884258      11.89745647       1.16520169       0.00005708      -0.00000257      -0.00001038
H       13.21828006      14.05924114       6.65503651       0.00000497       0.00003427      -0.00004117
H       10.96846319      14.20524347       1.88956842       0.00006206      -0.00001721       0.00001155
H        8.84026649      14.01045654       1.70323153      -0.00000490       0.00001420      -0.00001240
H        7.77068282       9.53803204       2.37970388       0.00004010      -0.00000674      -0.00002413
H       12.56880786      12.87993561       3.14607171      -0.00000467      -0.00005610       0.00001862
H        5.33946429      11.84452557       1.26398490       0.00002267       0.00002560       0.00002050
H       11.06548819      12.34279038       2.97676662      -0.00004402      -0.00001959       0.00000930
H        6.92760333      12.21962836       4.59785859       0.00004062       0.00002602       0.00002862
H        7.71867938      13.26943058       2.61132093      -0.00001957      -0.00005804      -0.00000415
H        6.62314016      13.74843677       4.72167852      -0.00004017      -0.00000724      -0.00002787
H        7.89738576      11.78312777       6.48011663      -0.00004507      -0.00001080       0.00004160
H        6.67334258      11.03784303       1.38782032      -0.00000220      -0.00005398      -0.00006935
H        8.59884636       9.82722229       5.22365005      -0.00000326       0.00001970       0.00000093
H        9.40586398       9.13294885       4.02486689      -0.00001682       0.00003231      -0.00001819
H       12.89605526      15.26563618       5.71356894      -0.00001505       0.00000633       0.00003628
H        6.88061648      10.55241546       6.31078513       0.00001760      -0.00004622       0.00002818
H       11.34801612       9.44233509       3.06921596      -0.00003200       0.00002870      -0.00003199
H        6.74601823      10.25159151       3.32121429      -0.00001025       0.00004184      -0.00001193
H       10.54609869       8.67023753       1.92017187       0.00003656       0.00001114       0.00004470
H        4.27402878       7.09362349       0.91800237      -0.00002926      -0.00005341       0.00003972
H        2.81970574       7.09720647       0.20417180       0.00000646      -0.00000862       0.00002739
H        8.91576602      11.44109754       3.53802999       0.00000436       0.00000979      -0.00002005
O        9.27864079      14.29057499       5.02180193      -0.00003836       0.00002635      -0.00002008
O       11.21616712      10.96484741       5.93426898       0.00000071       0.00000230      -0.00000188
O        9.66714049      11.25745287       0.77630511       0.00004456       0.00000650      -0.00002847
O        7.84177170       8.01515097       1.59791471       0.00002999      -0.00004025       0.00000758
O       11.81845441      12.77967294       2.48712504      -0.00003159       0.00001184       0.00004969
O        6.68825829      13.01387576       4.03939018      -0.00002093      -0.00002192      -0.00000948
O        6.00481133      11.34910450       0.70552623      -0.00002886      -0.00000480      -0.00000924
O        9.02378270       8.96912250       4.93192155       0.00002520       0.00003525       0.00000118
O        7.54771764      11.11171147       5.82115733      -0.00002932       0.00000928       0.00003089
O        5.38421079       9.60687061       4.11034033       0.00000735       0.00003000      -0.00000345
O       10.46457492       9.39722034       2.60039507      -0.00002428       0.00003732      -0.00001631
O        8.08707836      13.35021662       1.68776821      -0.00001262       0.00001345       0.00000549
O        3.53206402       7.67874346       0.57644802       0.00002108      -0.00003075      -0.00000453
O        7.52834711      10.44573797       2.72555277       0.00001001      -0.00002270      -0.00001504
O       13.66708595      14.72880449       6.05938516       0.00001351       0.00000497      -0.00005157
O        9.70505487      11.91299015       3.91027921      -0.00004406       0.00000835       0.00006018
H       11.55864726      15.71240422      12.61322710       0.00000377      -0.00000915      -0.00002939
H       12.63720719      16.51479649      11.70514258      -0.00002023      -0.00001228       0.00001311
H        8.24330088      10.51075997      11.16713564       0.00005224       0.00002947      -0.00003423
H       11.88880684      14.55050935      10.91975793      -0.00004805       0.00001054       0.00003690
H       14.04069164      13.52088913      13.07097421       0.00004528      -0.00003337       0.00002082
H       10.60728205      10.05935952       7.35873049       0.00001339      -0.00001771       0.00001196
H       14.75515010      11.82642061      11.53395600      -0.00000808       0.00004131      -0.00002320
H       13.04172584      13.02968905      11.92193416       0.00001045      -0.00000069      -0.00000966
H       12.47933221      12.43161593       8.20002924       0.00000350       0.00001737      -0.00001707
H       11.49023562      13.63817493       7.83307226       0.00005706      -0.00000259      -0.00001037
H       15.69967310      15.79995960      13.32290708       0.00000497       0.00003429      -0.00004114
H       13.44985623      15.94596192       8.55743899       0.00006208      -0.00001720       0.00001155
H       11.32165953      15.75117499       8.37110210      -0.00000491       0.00001422      -0.00001239
H       10.25207587      11.27875050       9.04757446       0.00004007      -0.00000673      -0.00002417
H       15.05020090      14.62065407       9.81394228      -0.00000467      -0.00005610       0.00001861
H        7.82085734      13.58524403       7.93185547       0.00002265       0.00002559       0.00002051
H       13.54688123      14.08350884       9.64463719      -0.00004401      -0.00001961       0.00000929
H        9.40899638      13.96034682      11.26572917       0.00004060       0.00002601       0.00002862
H       10.20007243      15.01014904       9.27919151      -0.00001959      -0.00005802      -0.00000417
H        9.10453321      15.48915523      11.38954910      -0.00004020      -0.00000725      -0.00002788
H       10.37877880      13.52384623      13.14798721      -0.00004509      -0.00001079       0.00004159
H        9.15473563      12.77856149       8.05569089      -0.00000224      -0.00005401      -0.00006936
H       11.08023940      11.56794074      11.89152063      -0.00000324       0.00001973       0.00000092
H       11.88725702      10.87366731      10.69273746      -0.00001681       0.00003232      -0.00001817
H       15.37744831      17.00635464      12.38143951      -0.00001506       0.00000636       0.00003631
H        9.36200952      12.29313391      12.97865570       0.00001758      -0.00004621       0.00002820
H       13.82940916      11.18305355       9.73708653      -0.00003201       0.00002870      -0.00003198
H        9.22741128      11.99230997       9.98908487      -0.00001028       0.00004185      -0.00001198
H       13.02749173      10.41095599       8.58804244       0.00003655       0.00001114       0.00004469
H        6.75542182       8.83434195       7.58587294      -0.00002923      -0.00005341       0.00003970
H        5.30109878       8.83792493       6.87204238       0.00000646      -0.00000862       0.00002736
H       11.39715906      13.18181600      10.20590056       0.00000437       0.00000980      -0.00002005
O       11.76003382      16.03129347      11.68967250      -0.00003830       0.00002623      -0.00002010
O       13.69756017      12.70556587      12.60213955       0.00000072       0.00000230      -0.00000187
O       12.14853353      12.99817132       7.44417568       0.00004460       0.00000653      -0.00002847
O       10.32316474       9.75586943       8.26578528       0.00003001      -0.00004022       0.00000760
O       14.29984745      14.52039140       9.15499561      -0.00003160       0.00001186       0.00004970
O        9.16965133      14.75459422      10.70726076      -0.00002089      -0.00002191      -0.00000949
O        8.48620437      13.08982295       7.37339680      -0.00002884      -0.00000474      -0.00000925
O       11.50517575      10.70984096      11.59979213       0.00002516       0.00003524       0.00000116
O       10.02911068      12.85242993      12.48902790      -0.00002930       0.00000925       0.00003091
O        7.86560383      11.34758907      10.77821090       0.00000739       0.00003002      -0.00000344
O       12.94596796      11.13793880       9.26826564      -0.00002428       0.00003731      -0.00001631
O       10.56847140      15.09093508       8.35563879      -0.00001257       0.00001341       0.00000550
O        6.01345706       9.41946192       7.24431858       0.00002105      -0.00003076      -0.00000446
O       10.00974015      12.18645643       9.39342333       0.00001009      -0.00002271      -0.00001496
O       16.14847900      16.46952295      12.72725574       0.00001348       0.00000491      -0.00005164
O       12.18644791      13.65370861      10.57814979      -0.00004407       0.00000837       0.00006019
H       13.92244773       7.06486792       5.94535648       0.00000377      -0.00000914      -0.00002938
H       15.00100765       7.86726019       5.03727196      -0.00002024      -0.00001228       0.00001310
H       10.60710135       1.86322367       4.49926501       0.00005223       0.00002947      -0.00003423
H       14.25260730       5.90297305       4.25188730      -0.00004804       0.00001056       0.00003689
H       16.40449210       4.87335283       6.40310359       0.00004528      -0.00003337       0.00002083
H       12.97108251       1.41182322       0.69085987       0.00001339      -0.00001771       0.00001196
H       17.11895056       3.17888431       4.86608538      -0.00000809       0.00004130      -0.00002319
H       15.40552631       4.38215275       5.25406354       0.00001045      -0.00000070      -0.00000967
H       14.84313267       3.78407963       1.53215862       0.00000352       0.00001737      -0.00001707
H       13.85403609       4.99063863       1.16520164       0.00005708      -0.00000257      -0.00001038
H       18.06347357       7.15242330       6.65503646       0.00000497       0.00003428      -0.00004115
H       15.81365669       7.29842562       1.88956837       0.00006206      -0.00001720       0.00001156
H       13.68545999       7.10363870       1.70323148      -0.00000490       0.00001420      -0.00001240
H       12.61587633       2.63121420       2.37970383       0.00004007      -0.00000673      -0.00002416
H       17.41400137       5.97311777       3.14607166      -0.00000467      -0.00005609       0.00001862
H       10.18465780       4.93770772       1.26398484       0.00002264       0.00002560       0.00002050
H       15.91068170       5.43597254       2.97676657      -0.00004402      -0.00001960       0.00000929
H       11.77279684       5.31281052       4.59785854       0.00004062       0.00002603       0.00002862
H       12.56387289       6.36261274       2.61132088      -0.00001958      -0.00005804      -0.00000415
H       11.46833367       6.84161893       4.72167847      -0.00004017      -0.00000724      -0.00002787
H       12.74257927       4.87630993       6.48011658      -0.00004508      -0.00001079       0.00004159
H       11.51853609       4.13102519       1.38782027      -0.00000222      -0.00005402      -0.00006936
H       13.44403986       2.92040444       5.22365000      -0.00000323       0.00001974       0.00000092
H       14.25105748       2.22613101       4.02486683      -0.00001680       0.00003232      -0.00001817
H       17.74124877       8.35881834       5.71356888      -0.00001506       0.00000635       0.00003629
H       11.72580998       3.64559761       6.31078507       0.00001758      -0.00004620       0.00002820
H       16.19320963       2.53551725       3.06921590      -0.00003202       0.00002870      -0.00003198
H       11.59121174       3.34477367       3.32121424      -0.00001028       0.00004184      -0.00001197
H       15.39129220       1.76341969       1.92017182       0.00003655       0.00001114       0.00004469
H        9.11922228       0.18680565       0.91800231      -0.00002925      -0.00005341       0.00003971
H        7.66489924       0.19038863       0.20417175       0.00000646      -0.00000861       0.00002738
H       13.76095952       4.53427970       3.53802994       0.00000437       0.00000979      -0.00002007
O       14.12383429       7.38375717       5.02180188      -0.00003829       0.00002620      -0.00002011
O       16.06136063       4.05802957       5.93426893       0.00000073       0.00000230      -0.00000188
O       14.51233399       4.35063503       0.77630506       0.00004456       0.00000650      -0.00002848
O       12.68696520       1.10833313       1.59791466       0.00003001      -0.00004022       0.00000759
O       16.66364791       5.87285510       2.48712499      -0.00003159       0.00001184       0.00004969
O       11.53345180       6.10705792       4.03939013      -0.00002094      -0.00002192      -0.00000949
O       10.85000484       4.44228665       0.70552618      -0.00002884      -0.00000476      -0.00000924
O       13.86897622       2.06230466       4.93192150       0.00002513       0.00003523       0.00000115
O       12.39291115       4.20489363       5.82115727      -0.00002931       0.00000926       0.00003090
O       10.22940429       2.70005276       4.11034028       0.00000742       0.00003004      -0.00000344
O       15.30976843       2.49040250       2.60039502      -0.00002428       0.00003731      -0.00001631
O       12.93227187       6.44339878       1.68776816      -0.00001261       0.00001345       0.00000550
O        8.37725753       0.77192562       0.57644796       0.00002107      -0.00003075      -0.00000450
O       12.37354061       3.53892013       2.72555271       0.00001008      -0.00002271      -0.00001497
O       18.51227946       7.82198665       6.05938512       0.00001349       0.00000494      -0.00005161
O       14.55024838       5.00617231       3.91027916      -0.00004408       0.00000836       0.00006023
H       16.40384077       8.80558638      12.61322705       0.00000378      -0.00000917      -0.00002940
H       17.48240069       9.60797865      11.70514253      -0.00002021      -0.00001231       0.00001311
H       13.08849439       3.60394213      11.16713559       0.00005225       0.00002948      -0.00003424
H       16.73400035       7.64369151      10.91975788      -0.00004804       0.00001052       0.00003690
H       18.88588515       6.61407129      13.07097416       0.00004528      -0.00003337       0.00002082
H       15.45247555       3.15254168       7.35873044       0.00001339      -0.00001772       0.00001195
H       19.60034360       4.91960277      11.53395595      -0.00000808       0.00004132      -0.00002320
H       17.88691935       6.12287121      11.92193411       0.00001045      -0.00000070      -0.00000966
H       17.32452571       5.52479809       8.20002919       0.00000350       0.00001737      -0.00001706
H       16.33542913       6.73135709       7.83307221       0.00005707      -0.00000258      -0.00001038
H       20.54486661       8.89314176      13.32290703       0.00000497       0.00003429      -0.00004114
H       18.29504973       9.03914408       8.55743894       0.00006208      -0.00001720       0.00001155
H       16.16685304       8.84435715       8.37110205      -0.00000492       0.00001423      -0.00001239
H       15.09726937       4.37193266       9.04757440       0.00004009      -0.00000674      -0.00002414
H       19.89539441       7.71383623       9.81394223      -0.00000467      -0.00005610       0.00001861
H       12.66605084       6.67842618       7.93185542       0.00002266       0.00002562       0.00002049
H       18.39207474       7.17669100       9.64463714      -0.00004401      -0.00001960       0.00000930
H       14.25418988       7.05352898      11.26572911       0.00004061       0.00002602       0.00002862
H       15.04526593       8.10333120       9.27919146      -0.00001958      -0.00005802      -0.00000416
H       13.94972671       8.58233739      11.38954905      -0.00004019      -0.00000726      -0.00002788
H       15.22397231       6.61702839      13.14798715      -0.00004508      -0.00001080       0.00004160
H       13.99992913       5.87174364       8.05569084      -0.00000219      -0.00005399      -0.00006935
H       15.92543291       4.66112290      11.89152058      -0.00000324       0.00001972       0.00000092
H       16.73245052       3.96684947      10.69273741      -0.00001681       0.00003231      -0.00001817
H       20.22264181      10.09953680      12.38143946      -0.00001506       0.00000635       0.00003631
H       14.20720303       5.38631607      12.97865565       0.00001759      -0.00004622       0.00002819
H       18.67460267       4.27623571       9.73708648      -0.00003202       0.00002869      -0.00003197
H       14.07260478       5.08549213       9.98908481      -0.00001025       0.00004183      -0.00001195
H       17.87268524       3.50413815       8.58804239       0.00003655       0.00001113       0.00004471
H       11.60061533       1.92752411       7.58587289      -0.00002925      -0.00005344       0.00003972
H       10.14629229       1.93110709       6.87204232       0.00000647      -0.00000862       0.00002739
H       16.24235257       6.27499816      10.20590051       0.00000437       0.00000979      -0.00002005
O       16.60522733       9.12447562      11.68967245      -0.00003833       0.00002629      -0.00002009
O       18.54275367       5.79874803      12.60213950       0.00000071       0.00000230      -0.00000186
O       16.99372703       6.09135348       7.44417563       0.00004459       0.00000652      -0.00002847
O       15.16835824       2.84905159       8.26578523       0.00003002      -0.00004020       0.00000760
O       19.14504096       7.61357356       9.15499556      -0.00003160       0.00001184       0.00004969
O       14.01484484       7.84777638      10.70726071      -0.00002091      -0.00002192      -0.00000949
O       13.33139788       6.18300512       7.37339675      -0.00002887      -0.00000481      -0.00000923
O       16.35036926       3.80302312      11.59979208       0.00002517       0.00003524       0.00000117
O       14.87430419       5.94561209      12.48902785      -0.00002932       0.00000927       0.00003090