48
Lattice="7.78178016030226 0.1246969540912091 0.1590329264899646 2.7660103283375648 7.274671407731394 0.1590329354147957 2.8239626713698587 1.9810340738602807 7.017194098954464" Properties=species:S:1:pos:R:3:forces:R:3 energy=-238.42053792650177 pbc="T T T"
H        7.27619083       7.72971139       6.42565856      -0.00005529      -0.00001142      -0.00002274
H        8.33108895       8.62146941       5.56149808      -0.00001748       0.00002365       0.00004030
H        3.51627563       2.13335063       4.81478007      -0.00001903      -0.00000464      -0.00000999
H        7.86804946       6.63308970       4.81117968       0.00004469      -0.00000897      -0.00001501
H        9.93900693       5.31008559       7.07678838      -0.00000447      -0.00000553      -0.00000957
H        6.03661715       1.53329535       0.87260263      -0.00002524      -0.00004185      -0.00001054
H       10.55284813       3.60365431       5.38863596      -0.00001590       0.00000555      -0.00004149
H        8.98030394       4.94647451       5.87350701      -0.00000568       0.00002799      -0.00000757
H        8.07635150       4.13060283       1.88003890      -0.00000019      -0.00001683      -0.00004149
H        7.06474701       5.28932986       1.46521601      -0.00001082      -0.00001632      -0.00000999
H       11.55053556       7.68758743       7.11004703       0.00003122      -0.00002789      -0.00002706
H        9.22832285       7.82794858       2.21181136      -0.00004642       0.00004949       0.00003884
H        7.02253172       7.48352141       2.05290104       0.00001645      -0.00002445       0.00004007
H        5.48764176       2.80488524       2.51909303       0.00002756       0.00001903      -0.00000929
H       11.02592297       6.54407957       3.41210140      -0.00006639      -0.00005617      -0.00002693
H        3.17638198       5.29575021       1.28829311       0.00001120      -0.00001952      -0.00000656
H        9.51990832       6.05984011       3.36287973       0.00003983       0.00006285      -0.00002529
H        4.96480275       5.74965313       4.79689007      -0.00001451       0.00001716      -0.00000658
H        5.82495656       6.79514934       2.91706148      -0.00002976      -0.00004829      -0.00002267
H        4.54732815       7.24243758       4.96167241       0.00003676      -0.00004410       0.00001059
H        6.04440547       5.43090606       6.76166550      -0.00007538      -0.00004328      -0.00002695
H        4.43792953       4.39509031       1.45307526      -0.00002901       0.00004959       0.00001057
H        6.63974565       3.30364122       5.56137551       0.00003078      -0.00006050       0.00003881
H        7.41634702       2.56978681       4.38119966      -0.00004795      -0.00000944      -0.00001051
H       11.19115812       8.89543974       6.18672311       0.00002728       0.00001945      -0.00000927
H        5.07646424       4.17964360       6.71244383       0.00007264       0.00001603      -0.00002530
H        9.47194953       2.97258049       3.56819125      -0.00000672      -0.00000231      -0.00000958
H        4.47423734       3.55393172       3.44241700      -0.00001561       0.00003885      -0.00002709
H        8.80372731       2.19488944       2.36490984       0.00002438      -0.00001485      -0.00000758
H        2.22926248       0.45026345       1.14354960       0.00000694       0.00004513      -0.00001497
H        0.77276737       0.48742787       0.50842699       0.00000123       0.00001911       0.00003940
H        7.40723344       5.25091461       4.17605716       0.00001840      -0.00000520       0.00003946
O        7.48779095       8.08949620       5.51697607       0.00000924       0.00004274       0.00004914
O        9.57834575       4.53802805       6.55615807      -0.00001960       0.00005388      -0.00001938
O        7.71578091       4.63518992       1.10037843      -0.00002317      -0.00000974       0.00001646
O        5.74833011       1.17994672       1.75668331       0.00000459       0.00001753      -0.00001641
O       10.24192476       6.44815844       2.79956402       0.00001639      -0.00003508      -0.00004346
O        4.71090325       6.54118996       4.25338581      -0.00000040       0.00000656       0.00001702
O        3.83423234       4.78758852       0.74478874       0.00000605      -0.00000257       0.00001699
O        6.98597052       2.41898653       5.26528035       0.00001798      -0.00000168      -0.00001643
O        5.68735491       4.72637152       6.14912809      -0.00002742       0.00002735      -0.00004344
O        3.12279429       2.96816597       4.44994253      -0.00001702      -0.00001846       0.00001648
O        8.62323127       2.89624785       3.04756096       0.00004398      -0.00003679      -0.00001936
O        6.23528222       6.87165114       2.00837896       0.00004336      -0.00000575       0.00004927
O        1.49285882       1.06370656       0.82113348       0.00001903       0.00000323       0.00002612
O        5.20959704       3.71709301       2.79351798       0.00002938      -0.00002714       0.00005347
O       11.95425553       8.32350073       6.46114805      -0.00001553       0.00003683       0.00005343
O        8.19420589       5.73185455       4.48876358       0.00000963       0.00001678       0.00002610
