36
Lattice="8.048657764160435 6.119749657918158e-08 1.0212923853588008e-07 6.069351195118737e-08 7.909975554313946 1.1697449894933457e-08 4.9009630889733335e-08 5.828263222700663e-09 3.924707990134319" Properties=species:S:1:pos:R:3:forces:R:3 energy=-179.06468821680903 stress="3.822657044931163e-06 1.1398744241416481e-08 3.1541817059562407e-07 1.1398744241416481e-08 6.6593582957021405e-06 2.986867338804263e-08 3.1541817059562407e-07 2.986867338804263e-08 -6.8323391507266185e-06" pbc="T T T"
H        4.31049556       6.67133612       1.85117793      -0.00001921      -0.00002389      -0.00000554
H        0.78046218       1.60172071       1.03369128       0.00001115       0.00000553      -0.00002644
H        6.31474340      -0.23333710       3.59731971       0.00003194       0.00000215      -0.00000583
H        5.81914065       3.70126037       1.22882258       0.00006487      -0.00006810       0.00002237
H        3.35012934       4.69871647       1.44750373       0.00001324      -0.00000590      -0.00000015
H        6.84470061       2.55852965       1.51134819      -0.00003802       0.00004919      -0.00001807
H        3.24386176       6.30825399       2.99604059       0.00001883      -0.00000603       0.00000291
H        0.67420009       3.21126056       3.40985594      -0.00001382       0.00000307       0.00001943
H       -0.28616743       1.23864043      -0.11117691       0.00003080       0.00001792       0.00000176
H        6.25384461       4.20872177       3.19117807       0.00000270      -0.00001451       0.00003118
H        5.22829116       5.35144199       3.47369758      -0.00003190       0.00002958       0.00003210
H        8.33482449       5.19363172       2.07353597      -0.00003453       0.00000515      -0.00003042
H        7.37446339      -0.74373185       2.47720568      -0.00002147       0.00001954      -0.00000066
H        4.69853049       8.65370223       0.51484610      -0.00000289       0.00000081       0.00002811
H        7.26819465       5.55670836       0.92866100       0.00001346       0.00000042       0.00004262
H        2.22951250       7.65624323       0.73353424       0.00001039       0.00000417      -0.00004637
H        1.20396167       6.51352106       0.45100792      -0.00002593      -0.00002646      -0.00001757
H        2.29041561       4.18832642       0.32738657       0.00001404      -0.00001669       0.00001328
H        5.75823239       8.14331527       1.63497955       0.00002407      -0.00000892      -0.00007552
H        1.79481084       0.25372695       2.69588112       0.00007165       0.00007034      -0.00000698
H        2.82036961       1.39646092       2.41336183      -0.00002910      -0.00006349       0.00001187
H        3.73816345       2.71635098       4.03588124      -0.00000013      -0.00003473       0.00003863
H        1.73390625       3.72164506       2.28973379       0.00002396       0.00003481       0.00003693
H        4.80479007       2.35326644       2.89102132       0.00003257      -0.00002194      -0.00001869
O        0.05452524       1.98396145       0.46549369      -0.00000219      -0.00003629       0.00001731
O        5.12664249       7.84196340       0.92328690      -0.00002060       0.00002323      -0.00000959
O        1.97358863       6.99634638       0.03034755      -0.00006244       0.00001419       0.00001810
O        3.96980909       5.92601679       2.42785364      -0.00002181       0.00002558      -0.00001303
O        2.05074501       0.91362825       1.99270206       0.00001939      -0.00000609      -0.00003637
O        6.94635328       0.06801019       2.88564254      -0.00002089      -0.00002074      -0.00001900
O        5.99791492       4.86861590       3.89436425      -0.00004945      -0.00000715      -0.00003845
O        6.07507141       3.04135863       1.93200308       0.00003426       0.00001376       0.00004856
O        7.99413520       5.93894709       1.49685649       0.00000001      -0.00001614       0.00000109
O        2.92202242       3.88697500       1.03906442      -0.00001529       0.00003812       0.00002571
O        1.10231321       4.02300133       3.00142113      -0.00001737      -0.00004532       0.00000444
O        4.07885151       1.97102502       3.45921510       0.00000969       0.00006483      -0.00002774
