6
Lattice="103.58725326462903 0.0 0.0 0.0 104.82125658793147 0.0 0.0 0.0 102.86468191466885" Properties=species:S:1:pos:R:3:forces:R:3 #=T CELL(abcABC):=T 200.00000=T 90.00000=T Step:=T 67=T Bead:=T 0=T positionsangstrom=T cellatomic_unit=T energy=-937.0420455039566 stress="7.975765582752345e-08 1.345977593970972e-07 3.590452081945745e-08 1.345977593970972e-07 2.420883947962427e-07 8.464212192301142e-08 3.590452081945745e-08 8.464212192301142e-08 4.743994203048215e-09" free_energy=-937.0420455039566 pbc="F F F"
O       50.91893218      50.47472031      50.72140531       0.04610210       0.05522279       0.05764149
H       49.99400407      50.57443226      50.49922860       0.00095906       0.00185076      -0.01591317
H       51.31572066      49.99707615      49.99393642      -0.00841870       0.00585273      -0.01237495
O       53.29143911      54.82606208      51.97060203      -0.02078342      -0.04351723      -0.00496594
H       53.59010160      54.72374005      52.87382693      -0.00145701      -0.01381795       0.01205648
H       52.84885519      54.00019993      51.75268255      -0.01640204      -0.00559109      -0.03644392
