6
Lattice="102.96751945646494 0.0 0.0 0.0 103.6877186954276 0.0 0.0 0.0 102.53483402388567" Properties=species:S:1:pos:R:3:forces:R:3 #=T CELL(abcABC):=T 200.00000=T 90.00000=T Step:=T 67=T Bead:=T 0=T positionsangstrom=T cellatomic_unit=T energy=-937.6162318148781 stress="2.87043123985102e-07 4.835939221604887e-07 1.1008317401297741e-07 4.835939221604887e-07 9.489572159997521e-07 2.2245724680601314e-07 1.1008317401297741e-07 2.2245724680601314e-07 6.962672418083303e-08" free_energy=-937.6162318148781 pbc="F F F"
O       50.79799747      50.21849074      50.69881712       0.16909334       0.34010457       0.05168327
H       50.31429782      51.04294693      50.78257128       0.01937947      -0.02311401       0.00380645
H       51.62427389      50.47024181      50.28094489      -0.02351888      -0.00457372       0.02056142
O       52.52162520      53.48745538      51.48277026      -0.16327135      -0.30943073      -0.07463238
H       52.77569104      53.28471849      52.38241097      -0.00263416       0.00046999      -0.00735493
H       52.06596594      52.69176374      51.19462365       0.00095159      -0.00345610       0.00593616
