6
Lattice="103.38067532857433 0.0 0.0 0.0 104.44341062376351 0.0 0.0 0.0 102.75473261774113" Properties=species:S:1:pos:R:3:forces:R:3 #=T CELL(abcABC):=T 200.00000=T 90.00000=T Step:=T 67=T Bead:=T 0=T positionsangstrom=T cellatomic_unit=T energy=-937.2630500459674 stress="3.6972043982612035e-07 6.146640581008025e-07 1.9120696122434665e-07 6.146640581008025e-07 1.122348120271775e-06 3.485346789819918e-07 1.9120696122434665e-07 3.485346789819918e-07 1.2737079422812548e-07" free_energy=-937.2630500459674 pbc="F F F"
O       50.75760077      50.28585717      50.52946823       0.19377835       0.34190896       0.09884503
H       50.39229625      51.07880843      50.92856417       0.00724574      -0.02146270      -0.00736074
H       51.68719904      50.49767791      50.41759145      -0.02863286      -0.01041931       0.00485138
O       52.94312047      54.22456480      51.74924840      -0.17426327      -0.31820052      -0.09359139
H       53.09467457      53.82151136      52.60453696      -0.00519727       0.00216757      -0.01604227
H       52.46442789      53.55427320      51.25242475       0.00706932       0.00600600       0.01329799
