6
Lattice="102.55436358435554 0.0 0.0 0.0 102.9320267670917 0.0 0.0 0.0 102.31493543003022" Properties=species:S:1:pos:R:3:forces:R:3 #=T CELL(abcABC):=T 200.00000=T 90.00000=T Step:=T 67=T Bead:=T 0=T positionsangstrom=T cellatomic_unit=T energy=-937.9368065882154 stress="1.3023349926673315e-07 1.574784436861958e-07 5.10012777183564e-08 1.574784436861958e-07 3.343001159136315e-07 8.210362243312164e-08 5.10012777183564e-08 8.210362243312164e-08 7.505287641907911e-08" free_energy=-937.9368065882154 pbc="F F F"
O       50.85540018      50.28120312      50.77629748       0.04509945       0.13042568      -0.01607786
H       50.09525978      50.79678718      50.49860108       0.03803488      -0.01211164       0.01646253
H       51.41034565      50.22304778      49.99578995      -0.01381211       0.01185974       0.03291980
O       52.16371795      52.79591011      51.33328257      -0.06461083      -0.14537268      -0.00295179
H       52.54851194      52.92739192      52.19474074      -0.01991230      -0.01292482      -0.03769007
H       51.78714824      51.90420118      51.36373056       0.01520091       0.02812373       0.00733740
