6
Lattice="102.34778564830084 0.0 0.0 0.0 102.55418080292375 0.0 0.0 0.0 102.2049861331025" Properties=species:S:1:pos:R:3:forces:R:3 #=T CELL(abcABC):=T 200.00000=T 90.00000=T Step:=T 67=T Bead:=T 0=T positionsangstrom=T cellatomic_unit=T energy=-937.7637435625809 stress="-5.331889567187132e-07 -1.0231397952123304e-06 -3.093193625084078e-07 -1.0231397952123304e-06 -1.8351282408183096e-06 -5.570347824314398e-07 -3.093193625084078e-07 -5.570347824314398e-07 -1.4167661008759273e-07" free_energy=-937.7637435625809 pbc="F F F"
O       50.77111636      50.20193556      50.64285136      -0.52643819      -0.95682475      -0.29592380
H       50.09116611      50.84045759      50.42095237       0.01673256      -0.01043943      -0.00532580
H       51.39921843      50.27640203      49.92216035      -0.02011774       0.00462899       0.01056080
O       51.91010843      52.27288306      51.26669599       0.54397066       0.95994700       0.33139935
H       52.37874690      52.78085642      51.91568688      -0.01536126      -0.01200056      -0.02682692
H       51.69029372      51.42246875      51.66424755       0.00121396       0.01468876      -0.01388363
