6
Lattice="104.00040913673843 0.0 0.0 0.0 105.57694851626738 0.0 0.0 0.0 103.0845805085243" Properties=species:S:1:pos:R:3:forces:R:3 #=T CELL(abcABC):=T 200.00000=T 90.00000=T Step:=T 67=T Bead:=T 0=T positionsangstrom=T cellatomic_unit=T energy=-936.9821284115692 stress="8.304591266274924e-08 1.4841166636265313e-07 1.6581962123512396e-08 1.4841166636265313e-07 2.9982343446558157e-07 6.014891975038288e-08 1.6581962123512396e-08 6.014891975038288e-08 -1.3628472578003949e-08" free_energy=-936.9821284115692 pbc="F F F"
O       50.91828790      50.47425618      50.72024547       0.06553378       0.09561164       0.06333833
H       49.99271719      50.57401580      50.49949066      -0.00653424      -0.01697408      -0.02496366
H       51.31624006      49.99587777      49.99351196      -0.02195269      -0.01033575      -0.01928455
O       53.70416516      55.58087846      52.19038043      -0.03774880      -0.07919170      -0.00859707
H       54.00388381      55.48100711      53.09356496       0.01648297       0.02092927       0.01938270
H       53.26322628      54.75727123      51.97418414      -0.01578102      -0.01003938      -0.02987574
