6
Lattice="103.17409739251963 0.0 0.0 0.0 104.06556465959557 0.0 0.0 0.0 102.6447833208134" Properties=species:S:1:pos:R:3:forces:R:3 #=T CELL(abcABC):=T 200.00000=T 90.00000=T Step:=T 67=T Bead:=T 0=T positionsangstrom=T cellatomic_unit=T energy=-937.4453471986697 stress="3.204123692497648e-07 6.68298892314698e-07 1.9525085684335755e-07 6.68298892314698e-07 1.1962097389523065e-06 3.332072003152512e-07 1.9525085684335755e-07 3.332072003152512e-07 8.56102542182658e-08" free_energy=-937.4453471986697 pbc="F F F"
O       50.76636072      50.25224225      50.57833772       0.17117732       0.31572984       0.08698513
H       50.38214437      51.05892191      50.92618416      -0.01223434       0.04131919       0.02188447
H       51.68303306      50.48938638      50.42731437       0.04509917       0.01594340      -0.00017151
O       52.72012611      53.85857346      51.58050363      -0.20673999      -0.38716289      -0.10058486
H       52.92021621      53.54610215      52.46267687       0.00113295       0.00025774       0.00285565
H       52.24770472      53.12392883      51.17696931       0.00156489       0.01391272      -0.01096887
