6
Lattice="102.76094152041024 0.0 0.0 0.0 103.30987273125966 0.0 0.0 0.0 102.42488472695794" Properties=species:S:1:pos:R:3:forces:R:3 #=T CELL(abcABC):=T 200.00000=T 90.00000=T Step:=T 67=T Bead:=T 0=T positionsangstrom=T cellatomic_unit=T energy=-937.7855834565079 stress="2.0076859491072728e-07 4.4444339515877644e-07 7.409310523698106e-08 4.4444339515877644e-07 8.687052177382745e-07 1.4821561340894812e-07 7.409310523698106e-08 1.4821561340894812e-07 5.743635799257313e-09" free_energy=-937.7855834565079 pbc="F F F"
O       50.85564527      50.25222343      50.81055858       0.17122405       0.32498123       0.07379870
H       50.19223382      50.91497620      50.61447255      -0.01729205       0.01099497      -0.01015392
H       51.50535668      50.34124107      50.11213798       0.00895335      -0.00055491      -0.01923744
O       52.35528711      53.16792307      51.41129238      -0.17862770      -0.33868676      -0.08143863
H       52.65075354      53.05887790      52.31265570       0.02125087       0.03947450       0.01079513
H       51.92084113      52.32683752      51.23117308      -0.00550852      -0.03620903       0.02623615
