6
Lattice="102.14120771224614 0.0 0.0 0.0 102.17633483875579 0.0 0.0 0.0 102.09503683617477" Properties=species:S:1:pos:R:3:forces:R:3 #=T CELL(abcABC):=T 200.00000=T 90.00000=T Step:=T 67=T Bead:=T 0=T positionsangstrom=T cellatomic_unit=T energy=-936.663560455479 stress="-1.6340248338209265e-06 -2.2744371661827987e-06 -1.819512994746302e-06 -2.2744371661827987e-06 -3.081873466890341e-06 -2.467785731125794e-06 -1.819512994746302e-06 -2.467785731125794e-06 -1.965259994942457e-06" free_energy=-936.663560455479 pbc="F F F"
O       50.79853344      50.53211982      50.33399551      -1.76396041      -2.38467718      -1.93159975
H       49.85818586      50.50470383      50.17266950       0.01997431      -0.02019250      -0.00169392
H       51.14452284      49.93415755      49.67598563      -0.02887176      -0.01288352       0.00714548
O       51.79486092      51.88612849      51.41750466       1.76683290       2.42072168       1.89556886
H       52.26167978      52.60590294      51.81430043       0.00738111      -0.00014380       0.03316247
H       51.76313330      51.19845288      52.08829088      -0.00135615      -0.00282468      -0.00258313
