6
Properties=species:S:1:pos:R:3:forces:R:3 #=T CELL(abcABC):=T 200.00000=T 90.00000=T Step:=T 67=T Bead:=T 0=T positionsangstrom=T cellatomic_unit=T energy=-28.63126409267637 pbc="F F F"
O        0.14426080      -0.96611096       0.25987165      -0.19695290      -0.39204902      -0.06760186
H       -0.79179734      -0.86931937       0.02189324      -0.03779469       0.01178811      -0.02098728
H        0.53567708      -1.44913286      -0.48556773       0.01472115      -0.01092435      -0.04107732
O        1.34739828       1.25448956       0.87744230       0.20742018       0.39370572       0.09420604
H        1.65273344       1.15727552       1.79228552       0.00948624       0.02330209      -0.00197816
H        0.89077851       0.40371977       0.65099228       0.00312003      -0.02582254       0.03743858
