6
Properties=species:S:1:pos:R:3:forces:R:3 #=T CELL(abcABC):=T 200.00000=T 90.00000=T Step:=T 67=T Bead:=T 0=T positionsangstrom=T cellatomic_unit=T energy=-28.48321305705716 pbc="F F F"
O        0.08805291      -0.77401866      -0.11437877      -0.59304954      -0.93035826      -0.52134810
H       -0.83733171      -1.01434932       0.05667145       0.00308057      -0.02832456      -0.00948707
H        0.48073108      -1.59683603      -0.44992252      -0.02939576      -0.00658764       0.00823698
O        1.26332670       1.06237016       0.88881992       0.60832121       0.94218847       0.53792318
H        1.65322098       1.17427182       1.76843053      -0.01165930      -0.01164400      -0.01575186
H        0.85217061       0.16939164       0.81886510       0.02270282       0.03472598       0.00042687
