672
Lattice="16.85196055541629 6.4539724970489585e-09 -6.107377109843882 4.08068872903939e-09 14.465110115838812 -3.7040418047222092e-09 -0.07777264072518916 -6.516929894352239e-09 19.981236902129407" Properties=species:S:1:pos:R:3:forces:R:3 energy=-3345.490673406751 stress="-6.668339186041705e-07 -4.42621020038069e-08 -1.247261832339464e-06 -4.42621020038069e-08 1.0334249583633139e-05 -5.5263006906340644e-08 -1.247261832339464e-06 -5.5263006906340644e-08 -1.042377208156954e-05" pbc="T T T"
H        2.93025948       4.69558297       1.98188093       0.00001960      -0.00000026      -0.00002073
H        2.07287460       3.56041737       2.64714986      -0.00002193      -0.00000146       0.00002310
H        1.01030118       5.15933818       1.24566612      -0.00002385      -0.00000172       0.00000195
H        4.03140215       6.62317475       2.03423245       0.00000023       0.00000796      -0.00000078
H        4.89176610       5.39420919       2.68263166       0.00001287       0.00000427       0.00000653
H       -0.42254124       5.40338193       0.62710221      -0.00002127      -0.00001630       0.00001153
H        1.99469016       3.28519882       0.30069265      -0.00001289      -0.00001543       0.00001269
H        2.56969794       3.57684870       4.86974107      -0.00002344      -0.00000196       0.00002218
H        1.36856931       2.59025328       4.64658653       0.00005109       0.00001146       0.00000783
H        2.58649526       2.63679620      -1.06096483       0.00001073      -0.00000373      -0.00001502
H        0.67160814       0.08328875       1.69264529      -0.00001426       0.00001638       0.00001141
H        2.67333459       1.01629804       1.51955557       0.00001071       0.00001767       0.00003956
H        3.21218602       0.35124245       0.21678325       0.00004912      -0.00004163      -0.00003227
H        0.39035779       1.53541125       2.36008367       0.00000280      -0.00000729      -0.00000558
H        1.24383029       1.07929923       6.48191833       0.00000457      -0.00001616       0.00000851
H        2.10121643      -0.05585862       5.81663873       0.00000810       0.00001673      -0.00002655
H        3.16381754       1.54305577       7.21810539      -0.00000210       0.00000446       0.00001286
H        0.14267895       3.00687862       6.42954804       0.00002011       0.00005110       0.00001796
H       -0.71767546       1.77792500       5.78113084      -0.00002229      -0.00001926      -0.00001333
H        4.59666410       1.78709319       7.83666633       0.00001198       0.00001217       0.00000305
H        2.17943172       6.90147514       8.16308338       0.00001372       0.00002030      -0.00000464
H        1.60439633       7.19314662       3.59403588       0.00000724      -0.00000037       0.00001052
H        2.80551124       6.20654146       3.81720806       0.00002433       0.00002099      -0.00001879
H        1.58763128       6.25306634       9.52473601      -0.00002334       0.00002889       0.00003915
H        3.50249707       3.69957431       6.77113792      -0.00001071      -0.00002703      -0.00001321
H        1.50074499       4.63255634       6.94422694       0.00001955       0.00000509       0.00002403
H        0.96189702       3.96749807       8.24700878       0.00000518      -0.00000022      -0.00001010
H        3.78373512       5.15168885       6.10370579       0.00000079       0.00003360      -0.00002324
H        5.45681113       2.53695888       4.95506110       0.00001303       0.00002326       0.00002199
H        6.31421001       3.67211863       4.28980155      -0.00002142       0.00002272      -0.00002550
H        7.37682035       2.07319967       5.69126926      -0.00005177       0.00003101       0.00002008
H        4.35566019       0.60937876       4.90269651       0.00001527       0.00000542      -0.00001049
H        3.49531613       1.83835538       4.25429112      -0.00004219      -0.00006059      -0.00001042
H        8.80966419       1.82917960       6.30982970       0.00001422      -0.00001706       0.00001734
H        6.39240940       3.94735751       6.63626351      -0.00001444       0.00000156      -0.00000994
H        5.81739048       3.65570673       2.06716698      -0.00001225      -0.00001619       0.00000289
H        7.01849711       4.64231298       2.29033789       0.00003512      -0.00001404      -0.00000358
H        5.80061447       4.59577475       7.99791916      -0.00000175      -0.00004276      -0.00002236
H        7.71549586       7.14925050       5.24427633      -0.00000741       0.00002067       0.00001411
H        5.71374755       6.21627065       5.41738324       0.00000162       0.00001026       0.00004280
H        5.17490105       6.88133596       6.72016641       0.00000919       0.00000115      -0.00002934
H        7.99672385       5.69713747       4.57683776      -0.00001157      -0.00002189      -0.00000739
H        7.14325392       6.15324792       0.45500199       0.00004686       0.00002640       0.00002526
H        6.28587725       7.28841481       1.12028893      -0.00001776      -0.00001564       0.00003489
H        5.22328652       5.68949624      -0.28116855      -0.00005954       0.00000832      -0.00002964
H        8.24442660       4.22567533       0.50736032       0.00000903      -0.00000307       0.00001965
H        9.10478279       5.45464680       1.15577099      -0.00004633      -0.00003209      -0.00000140
H        3.79043911       5.44546367      -0.89974049       0.00001999       0.00003148       0.00001116
H        6.20767543       0.33107824      -1.22614815      -0.00000386       0.00003220      -0.00001226
H        6.78268111       0.03943591       3.34288965       0.00003357      -0.00002431      -0.00001180
H        5.58156379       1.02602873       3.11971433      -0.00000657       0.00000155       0.00001643
H        6.79948975       0.97948043      -2.58780503       0.00000738       0.00000499       0.00001059
H        4.88459866       3.53297370       0.16576469       0.00000083      -0.00000667       0.00004180
H        6.88635011       2.59997480      -0.00730634      -0.00001403       0.00001556       0.00002057
H        7.42520319       3.26503763      -1.31007642       0.00000977       0.00003921       0.00000283
H        4.60336174       2.08085998       0.83322086      -0.00002527       0.00001899       0.00000295
O        2.17124288       4.06505876       1.78718674       0.00002558      -0.00003258      -0.00000783
O        3.98515529       5.81537312       2.61340480      -0.00000062       0.00000516       0.00000998
O        0.45943530       5.85158999       0.77325638      -0.00000661      -0.00001123      -0.00004536
O        2.20209234       2.91644340       4.20417822       0.00001584       0.00002934      -0.00004143
O        1.74931874       2.91000485      -0.59353049       0.00000376       0.00002842      -0.00002073
O        3.52915219       0.79860866       1.05532050      -0.00000862      -0.00000512      -0.00001146
O        1.07139413       0.80727644       2.25183883       0.00002912       0.00001058      -0.00000653
O        2.00284979       0.44877665       6.67660626       0.00000009      -0.00003037       0.00001327
O        0.18893854       2.19907988       5.85037593      -0.00002892       0.00003623      -0.00000061
O        3.71468821       2.23530583       7.69051032      -0.00000377       0.00000291       0.00003723
O        1.97199697       6.53274945       4.25961380       0.00000292      -0.00002466      -0.00000316
O        2.42480589       6.52630014       9.05731448      -0.00000917      -0.00004124      -0.00001176
O        0.64493314       4.41487041       7.40847393      -0.00000982      -0.00001168      -0.00002393
O        3.10269776       4.42355870       6.21195037       0.00000430       0.00001179       0.00000973
O        6.21582152       3.16748825       5.14976498       0.00005853      -0.00000945      -0.00001430
O        4.40191837       1.41717087       4.32351245       0.00000627       0.00003071       0.00001577
O        7.92769044       1.38095938       6.16368347       0.00000020       0.00000829      -0.00002714
O        6.18498459       4.31610455       2.73274425       0.00001645      -0.00000869      -0.00000194
O        6.63778689       4.32254611       7.53048561       0.00002431       0.00001311      -0.00001908
O        4.85793796       6.43395950       5.88163298      -0.00003903      -0.00000557      -0.00001752
O        7.31569050       6.42527251       4.68508719       0.00000391       0.00000718      -0.00000011
O        6.38423453       6.78377434       0.26032415       0.00002372       0.00001326       0.00000693
O        8.19817218       5.03347910       1.08652730      -0.00005438      -0.00001659       0.00003744
O        4.67241575       4.99725251      -0.75358575      -0.00000575      -0.00003338      -0.00002834
O        6.41508938       0.69983748       2.67731500      -0.00002311      -0.00003288      -0.00000946
O        5.96231034       0.70628210      -2.12037035      -0.00001850      -0.00004227      -0.00004546
O        7.74216728       2.81767100      -0.47153814      -0.00000934      -0.00000967      -0.00000463
O        5.28439557       2.80899183       0.72495823       0.00002622      -0.00002023       0.00001058
H        2.89137316       4.69558296      11.97249938       0.00001960      -0.00000026      -0.00002073
H        2.03398828       3.56041737      12.63776831      -0.00002193      -0.00000146       0.00002310
H        0.97141486       5.15933817      11.23628457      -0.00002385      -0.00000172       0.00000195
H        3.99251583       6.62317475      12.02485090       0.00000023       0.00000796      -0.00000078
H        4.85287978       5.39420918      12.67325011       0.00001287       0.00000427       0.00000653
H       -0.46142756       5.40338193      10.61772066      -0.00002127      -0.00001630       0.00001153
H        1.95580384       3.28519882      10.29131110      -0.00001289      -0.00001543       0.00001269
H        2.53081162       3.57684870      14.86035952      -0.00002344      -0.00000196       0.00002218
H        1.32968299       2.59025328      14.63720498       0.00005109       0.00001146       0.00000783
H        2.54760894       2.63679620       8.92965362       0.00001073      -0.00000373      -0.00001502
H        0.63272182       0.08328875      11.68326374      -0.00001426       0.00001638       0.00001141
H        2.63444827       1.01629803      11.51017402       0.00001071       0.00001767       0.00003956
H        3.17329970       0.35124245      10.20740170       0.00004912      -0.00004163      -0.00003227
H        0.35147147       1.53541125      12.35070212       0.00000280      -0.00000729      -0.00000558
H        1.20494397       1.07929923      16.47253678       0.00000457      -0.00001616       0.00000851
H        2.06233011      -0.05585862      15.80725718       0.00000810       0.00001673      -0.00002655
H        3.12493122       1.54305577      17.20872384      -0.00000210       0.00000446       0.00001286
H        0.10379263       3.00687861      16.42016649       0.00002011       0.00005110       0.00001796
H       -0.75656178       1.77792500      15.77174929      -0.00002229      -0.00001926      -0.00001333
H        4.55777778       1.78709318      17.82728478       0.00001198       0.00001217       0.00000305
H        2.14054540       6.90147513      18.15370183       0.00001372       0.00002030      -0.00000464
H        1.56551001       7.19314661      13.58465433       0.00000724      -0.00000037       0.00001052
H        2.76662492       6.20654146      13.80782651       0.00002433       0.00002099      -0.00001879
H        1.54874496       6.25306634      19.51535446      -0.00002334       0.00002889       0.00003915
H        3.46361075       3.69957431      16.76175637      -0.00001071      -0.00002703      -0.00001321
H        1.46185867       4.63255633      16.93484539       0.00001955       0.00000509       0.00002403
H        0.92301070       3.96749807      18.23762724       0.00000518      -0.00000022      -0.00001010
H        3.74484880       5.15168884      16.09432424       0.00000079       0.00003360      -0.00002324
H        5.41792481       2.53695888      14.94567955       0.00001303       0.00002326       0.00002199
H        6.27532369       3.67211863      14.28042000      -0.00002142       0.00002272      -0.00002550
H        7.33793403       2.07319966      15.68188771      -0.00005177       0.00003101       0.00002008
H        4.31677387       0.60937876      14.89331496       0.00001527       0.00000542      -0.00001049
H        3.45642981       1.83835538      14.24490957      -0.00004219      -0.00006059      -0.00001042
H        8.77077787       1.82917960      16.30044815       0.00001422      -0.00001706       0.00001734
H        6.35352308       3.94735751      16.62688196      -0.00001444       0.00000156      -0.00000994
H        5.77850416       3.65570673      12.05778543      -0.00001225      -0.00001619       0.00000289
H        6.97961079       4.64231298      12.28095634       0.00003512      -0.00001404      -0.00000358
H        5.76172815       4.59577475      17.98853761      -0.00000175      -0.00004276      -0.00002236
H        7.67660953       7.14925050      15.23489478      -0.00000741       0.00002067       0.00001411
H        5.67486123       6.21627064      15.40800169       0.00000162       0.00001026       0.00004280
H        5.13601473       6.88133595      16.71078486       0.00000919       0.00000115      -0.00002934
H        7.95783753       5.69713746      14.56745621      -0.00001157      -0.00002189      -0.00000739
H        7.10436760       6.15324791      10.44562044       0.00004686       0.00002640       0.00002526
H        6.24699093       7.28841481      11.11090738      -0.00001776      -0.00001564       0.00003489
H        5.18440020       5.68949624       9.70944990      -0.00005954       0.00000832      -0.00002964
H        8.20554028       4.22567533      10.49797877       0.00000903      -0.00000307       0.00001965
H        9.06589647       5.45464680      11.14638944      -0.00004633      -0.00003209      -0.00000140
H        3.75155279       5.44546367       9.09087796       0.00001999       0.00003148       0.00001116
H        6.16878911       0.33107824       8.76447031      -0.00000386       0.00003220      -0.00001226
H        6.74379479       0.03943591      13.33350811       0.00003357      -0.00002431      -0.00001180
H        5.54267747       1.02602873      13.11033278      -0.00000657       0.00000155       0.00001643
H        6.76060343       0.97948042       7.40281343       0.00000738       0.00000499       0.00001059
H        4.84571234       3.53297369      10.15638314       0.00000083      -0.00000667       0.00004180
H        6.84746379       2.59997480       9.98331211      -0.00001403       0.00001556       0.00002057
H        7.38631686       3.26503763       8.68054203       0.00000977       0.00003921       0.00000283
H        4.56447542       2.08085997      10.82383931      -0.00002527       0.00001899       0.00000295
O        2.13235656       4.06505876      11.77780519       0.00002558      -0.00003258      -0.00000783
O        3.94626897       5.81537312      12.60402325      -0.00000062       0.00000516       0.00000998
O        0.42054898       5.85158999      10.76387483      -0.00000661      -0.00001123      -0.00004536
O        2.16320602       2.91644340      14.19479667       0.00001584       0.00002934      -0.00004143
O        1.71043242       2.91000485       9.39708796       0.00000376       0.00002842      -0.00002073
O        3.49026587       0.79860866      11.04593895      -0.00000862      -0.00000512      -0.00001146
O        1.03250781       0.80727644      12.24245728       0.00002912       0.00001058      -0.00000653
O        1.96396347       0.44877665      16.66722471       0.00000009      -0.00003037       0.00001327
O        0.15005222       2.19907988      15.84099438      -0.00002892       0.00003623      -0.00000061
O        3.67580188       2.23530583      17.68112877      -0.00000377       0.00000291       0.00003723
O        1.93311065       6.53274944      14.25023225       0.00000292      -0.00002466      -0.00000316
O        2.38591957       6.52630014      19.04793294      -0.00000917      -0.00004124      -0.00001176
O        0.60604682       4.41487040      17.39909238      -0.00000982      -0.00001168      -0.00002393
O        3.06381144       4.42355869      16.20256882       0.00000430       0.00001179       0.00000973
O        6.17693520       3.16748825      15.14038343       0.00005853      -0.00000945      -0.00001430
O        4.36303205       1.41717086      14.31413090       0.00000627       0.00003071       0.00001577
O        7.88880412       1.38095937      16.15430192       0.00000020       0.00000829      -0.00002714
O        6.14609827       4.31610455      12.72336270       0.00001645      -0.00000869      -0.00000194
O        6.59890057       4.32254611      17.52110406       0.00002431       0.00001311      -0.00001908
O        4.81905164       6.43395950      15.87225143      -0.00003903      -0.00000557      -0.00001752
O        7.27680418       6.42527251      14.67570564       0.00000391       0.00000718      -0.00000011
O        6.34534821       6.78377433      10.25094260       0.00002372       0.00001326       0.00000693
O        8.15928586       5.03347909      11.07714575      -0.00005438      -0.00001659       0.00003744
O        4.63352943       4.99725251       9.23703270      -0.00000575      -0.00003338      -0.00002834
O        6.37620306       0.69983747      12.66793345      -0.00002311      -0.00003288      -0.00000946
O        5.92342402       0.70628209       7.87024810      -0.00001850      -0.00004227      -0.00004546
O        7.70328096       2.81767099       9.51908031      -0.00000934      -0.00000967      -0.00000463
O        5.24550925       2.80899183      10.71557668       0.00002622      -0.00002023       0.00001058
H        2.93025948      11.92813802       1.98188093       0.00001960      -0.00000026      -0.00002073
H        2.07287460      10.79297243       2.64714986      -0.00002193      -0.00000146       0.00002310
H        1.01030118      12.39189323       1.24566612      -0.00002385      -0.00000172       0.00000195
H        4.03140216      13.85572981       2.03423245       0.00000023       0.00000796      -0.00000078
H        4.89176611      12.62676424       2.68263166       0.00001287       0.00000427       0.00000653
H       -0.42254124      12.63593699       0.62710221      -0.00002127      -0.00001630       0.00001153
H        1.99469016      10.51775388       0.30069265      -0.00001289      -0.00001543       0.00001269
H        2.56969794      10.80940376       4.86974107      -0.00002344      -0.00000196       0.00002218
H        1.36856931       9.82280834       4.64658653       0.00005109       0.00001146       0.00000783
H        2.58649526       9.86935126      -1.06096483       0.00001073      -0.00000373      -0.00001502
H        0.67160814       7.31584381       1.69264529      -0.00001426       0.00001638       0.00001141
H        2.67333460       8.24885310       1.51955557       0.00001071       0.00001767       0.00003956
H        3.21218602       7.58379751       0.21678325       0.00004912      -0.00004163      -0.00003227
H        0.39035779       8.76796631       2.36008367       0.00000280      -0.00000729      -0.00000558
H        1.24383030       8.31185429       6.48191833       0.00000457      -0.00001616       0.00000851
H        2.10121644       7.17669644       5.81663873       0.00000810       0.00001673      -0.00002655
H        3.16381754       8.77561083       7.21810539      -0.00000210       0.00000446       0.00001286
H        0.14267895      10.23943367       6.42954804       0.00002011       0.00005110       0.00001796
H       -0.71767545       9.01048006       5.78113083      -0.00002229      -0.00001926      -0.00001333
H        4.59666411       9.01964825       7.83666632       0.00001198       0.00001217       0.00000305
H        2.17943173      14.13403019       8.16308338       0.00001372       0.00002030      -0.00000464
H        1.60439633      14.42570168       3.59403588       0.00000724      -0.00000037       0.00001052
H        2.80551124      13.43909652       3.81720806       0.00002433       0.00002099      -0.00001879
H        1.58763128      13.48562140       9.52473601      -0.00002334       0.00002889       0.00003915
H        3.50249707      10.93212937       6.77113792      -0.00001071      -0.00002703      -0.00001321
H        1.50074500      11.86511139       6.94422694       0.00001955       0.00000509       0.00002403
H        0.96189702      11.20005313       8.24700878       0.00000518      -0.00000022      -0.00001010
H        3.78373512      12.38424390       6.10370579       0.00000079       0.00003360      -0.00002324
H        5.45681113       9.76951394       4.95506110       0.00001303       0.00002326       0.00002199
H        6.31421001      10.90467369       4.28980155      -0.00002142       0.00002272      -0.00002550
H        7.37682035       9.30575472       5.69126926      -0.00005177       0.00003101       0.00002008
H        4.35566019       7.84193382       4.90269651       0.00001527       0.00000542      -0.00001049
H        3.49531613       9.07091044       4.25429112      -0.00004219      -0.00006059      -0.00001042
H        8.80966419       9.06173466       6.30982970       0.00001422      -0.00001706       0.00001734
H        6.39240940      11.17991257       6.63626350      -0.00001444       0.00000156      -0.00000994
H        5.81739048      10.88826179       2.06716697      -0.00001225      -0.00001619       0.00000289
H        7.01849711      11.87486804       2.29033789       0.00003512      -0.00001404      -0.00000358
H        5.80061447      11.82832981       7.99791916      -0.00000175      -0.00004276      -0.00002236
H        7.71549586      14.38180556       5.24427632      -0.00000741       0.00002067       0.00001411
H        5.71374755      13.44882570       5.41738324       0.00000162       0.00001026       0.00004280
H        5.17490105      14.11389102       6.72016640       0.00000919       0.00000115      -0.00002934
H        7.99672385      12.92969252       4.57683776      -0.00001157      -0.00002189      -0.00000739
H        7.14325392      13.38580297       0.45500199       0.00004686       0.00002640       0.00002526
H        6.28587725      14.52096987       1.12028893      -0.00001776      -0.00001564       0.00003489
H        5.22328652      12.92205130      -0.28116855      -0.00005954       0.00000832      -0.00002964
H        8.24442661      11.45823039       0.50736032       0.00000903      -0.00000307       0.00001965
H        9.10478279      12.68720186       1.15577099      -0.00004633      -0.00003209      -0.00000140
H        3.79043911      12.67801873      -0.89974049       0.00001999       0.00003148       0.00001116
H        6.20767544       7.56363330      -1.22614815      -0.00000386       0.00003220      -0.00001226
H        6.78268111       7.27199097       3.34288965       0.00003357      -0.00002431      -0.00001180
H        5.58156379       8.25858379       3.11971432      -0.00000657       0.00000155       0.00001643
H        6.79948975       8.21203549      -2.58780503       0.00000738       0.00000499       0.00001059
H        4.88459866      10.76552876       0.16576468       0.00000083      -0.00000667       0.00004180
H        6.88635012       9.83252986      -0.00730634      -0.00001403       0.00001556       0.00002057
H        7.42520319      10.49759269      -1.31007642       0.00000977       0.00003921       0.00000283
H        4.60336174       9.31341503       0.83322086      -0.00002527       0.00001899       0.00000295
O        2.17124288      11.29761382       1.78718674       0.00002558      -0.00003258      -0.00000783
O        3.98515529      13.04792818       2.61340479      -0.00000062       0.00000516       0.00000998
O        0.45943531      13.08414505       0.77325638      -0.00000661      -0.00001123      -0.00004536
O        2.20209234      10.14899846       4.20417822       0.00001584       0.00002934      -0.00004143
O        1.74931874      10.14255991      -0.59353049       0.00000376       0.00002842      -0.00002073
O        3.52915219       8.03116372       1.05532049      -0.00000862      -0.00000512      -0.00001146
O        1.07139413       8.03983150       2.25183883       0.00002912       0.00001058      -0.00000653
O        2.00284979       7.68133171       6.67660626       0.00000009      -0.00003037       0.00001327
O        0.18893854       9.43163494       5.85037593      -0.00002892       0.00003623      -0.00000061
O        3.71468821       9.46786089       7.69051032      -0.00000377       0.00000291       0.00003723
O        1.97199697      13.76530451       4.25961380       0.00000292      -0.00002466      -0.00000316
O        2.42480590      13.75885520       9.05731448      -0.00000917      -0.00004124      -0.00001176
O        0.64493315      11.64742546       7.40847393      -0.00000982      -0.00001168      -0.00002393
O        3.10269776      11.65611375       6.21195037       0.00000430       0.00001179       0.00000973
O        6.21582152      10.40004331       5.14976497       0.00005853      -0.00000945      -0.00001430
O        4.40191837       8.64972593       4.32351245       0.00000627       0.00003071       0.00001577
O        7.92769044       8.61351443       6.16368347       0.00000020       0.00000829      -0.00002714
O        6.18498459      11.54865961       2.73274425       0.00001645      -0.00000869      -0.00000194
O        6.63778689      11.55510117       7.53048561       0.00002431       0.00001311      -0.00001908
O        4.85793796      13.66651456       5.88163298      -0.00003903      -0.00000557      -0.00001752
O        7.31569051      13.65782757       4.68508719       0.00000391       0.00000718      -0.00000011
O        6.38423454      14.01632939       0.26032414       0.00002372       0.00001326       0.00000693
O        8.19817219      12.26603416       1.08652729      -0.00005438      -0.00001659       0.00003744
O        4.67241576      12.22980757      -0.75358575      -0.00000575      -0.00003338      -0.00002834
O        6.41508939       7.93239254       2.67731500      -0.00002311      -0.00003288      -0.00000946
O        5.96231034       7.93883716      -2.12037035      -0.00001850      -0.00004227      -0.00004546
O        7.74216728      10.05022605      -0.47153814      -0.00000934      -0.00000967      -0.00000463
O        5.28439557      10.04154689       0.72495823       0.00002622      -0.00002023       0.00001058
H        2.89137316      11.92813802      11.97249938       0.00001960      -0.00000026      -0.00002073
H        2.03398828      10.79297243      12.63776831      -0.00002193      -0.00000146       0.00002310
H        0.97141486      12.39189323      11.23628457      -0.00002385      -0.00000172       0.00000195
H        3.99251584      13.85572981      12.02485090       0.00000023       0.00000796      -0.00000078
H        4.85287979      12.62676424      12.67325011       0.00001287       0.00000427       0.00000653
H       -0.46142756      12.63593698      10.61772066      -0.00002127      -0.00001630       0.00001153
H        1.95580384      10.51775388      10.29131110      -0.00001289      -0.00001543       0.00001269
H        2.53081162      10.80940376      14.86035952      -0.00002344      -0.00000196       0.00002218
H        1.32968299       9.82280834      14.63720498       0.00005109       0.00001146       0.00000783
H        2.54760894       9.86935125       8.92965362       0.00001073      -0.00000373      -0.00001502
H        0.63272182       7.31584381      11.68326374      -0.00001426       0.00001638       0.00001141
H        2.63444827       8.24885309      11.51017402       0.00001071       0.00001767       0.00003956
H        3.17329970       7.58379751      10.20740170       0.00004912      -0.00004163      -0.00003227
H        0.35147147       8.76796631      12.35070212       0.00000280      -0.00000729      -0.00000558
H        1.20494398       8.31185429      16.47253678       0.00000457      -0.00001616       0.00000851
H        2.06233012       7.17669644      15.80725718       0.00000810       0.00001673      -0.00002655
H        3.12493122       8.77561083      17.20872384      -0.00000210       0.00000446       0.00001286
H        0.10379263      10.23943367      16.42016649       0.00002011       0.00005110       0.00001796
H       -0.75656178       9.01048005      15.77174929      -0.00002229      -0.00001926      -0.00001333
H        4.55777779       9.01964824      17.82728478       0.00001198       0.00001217       0.00000305
H        2.14054541      14.13403019      18.15370183       0.00001372       0.00002030      -0.00000464
H        1.56551001      14.42570167      13.58465433       0.00000724      -0.00000037       0.00001052
H        2.76662492      13.43909652      13.80782651       0.00002433       0.00002099      -0.00001879
H        1.54874496      13.48562139      19.51535446      -0.00002334       0.00002889       0.00003915
H        3.46361075      10.93212937      16.76175637      -0.00001071      -0.00002703      -0.00001321
H        1.46185868      11.86511139      16.93484539       0.00001955       0.00000509       0.00002403
H        0.92301070      11.20005313      18.23762723       0.00000518      -0.00000022      -0.00001010
H        3.74484880      12.38424390      16.09432424       0.00000079       0.00003360      -0.00002324