288
Lattice="20.058390927784703 -3.6631805453555704e-06 1.7287222171145944e-07 -2.441797364330247e-06 13.372246862856336 -5.386824050029151e-07 -1.0765166568875425e-07 -1.5708640975947826e-07 6.424674968173391" Properties=species:S:1:pos:R:3:forces:R:3 energy=-1425.481511223507 stress="8.415264236508874e-07 1.8611593064860036e-06 8.760312978532901e-07 1.8611593064860036e-06 6.837751998587521e-07 -4.810513979468452e-07 8.760312978532901e-07 -4.810513979468452e-07 -1.670663177737175e-06" pbc="T T T"
H        0.55848970       0.55849572       0.56434439      -0.00003207      -0.00003653       0.00001227
H        3.90155486       0.55849511       0.56434442      -0.00003207      -0.00003653       0.00001227
H        7.24462001       0.55849450       0.56434445      -0.00003207      -0.00003653       0.00001227
H        0.55848909       3.90155744       0.56434426      -0.00003207      -0.00003653       0.00001227
H        3.90155425       3.90155683       0.56434428      -0.00003207      -0.00003653       0.00001227
H        7.24461940       3.90155621       0.56434431      -0.00003207      -0.00003653       0.00001227
H        2.78456388       2.78458742       0.56435102       0.00004437       0.00001067       0.00000040
H        6.12762904       2.78458681       0.56435105       0.00004437       0.00001067       0.00000040
H        9.47069419       2.78458620       0.56435108       0.00004437       0.00001067       0.00000040
H        2.78456327       6.12764914       0.56435089       0.00004437       0.00001067       0.00000040
H        6.12762843       6.12764853       0.56435092       0.00004437       0.00001067       0.00000040
H        9.47069358       6.12764791       0.56435095       0.00004437       0.00001067       0.00000040
H        2.23003134       1.11303783       2.17049471       0.00001268      -0.00002453       0.00001996
H        5.57309650       1.11303722       2.17049474       0.00001268      -0.00002453       0.00001996
H        8.91616165       1.11303661       2.17049477       0.00001268      -0.00002453       0.00001996
H        2.23003073       4.45609955       2.17049457       0.00001268      -0.00002453       0.00001996
H        5.57309589       4.45609894       2.17049460       0.00001268      -0.00002453       0.00001996
H        8.91616104       4.45609833       2.17049463       0.00001268      -0.00002453       0.00001996
H        1.11304897       2.22999803       2.17052392      -0.00003474       0.00005751      -0.00002987
H        4.45611413       2.22999742       2.17052395      -0.00003474       0.00005751      -0.00002987
H        7.79917928       2.22999681       2.17052398      -0.00003474       0.00005751      -0.00002987
H        1.11304836       5.57305975       2.17052379      -0.00003474       0.00005751      -0.00002987
H        4.45611352       5.57305914       2.17052382      -0.00003474       0.00005751      -0.00002987
H        7.79917867       5.57305853       2.17052385      -0.00003474       0.00005751      -0.00002987
O       10.02919041       0.00000461       3.17585049       0.00000711      -0.00000918      -0.00003965
O        3.34306010       0.00000583       3.17585043       0.00000711      -0.00000918      -0.00003965
O        6.68612526       0.00000522       3.17585046       0.00000711      -0.00000918      -0.00003965
O       10.02918980       3.34306632       3.17585035       0.00000711      -0.00000918      -0.00003965
O        3.34305949       3.34306754       3.17585030       0.00000711      -0.00000918      -0.00003965
O        6.68612465       3.34306693       3.17585033       0.00000711      -0.00000918      -0.00003965
O        1.67153233       1.67152707       1.56966848       0.00000264       0.00000207       0.00003690
O        5.01459749       1.67152646       1.56966851       0.00000264       0.00000207       0.00003690
O        8.35766264       1.67152585       1.56966854       0.00000264       0.00000207       0.00003690
O        1.67153172       5.01458879       1.56966835       0.00000264       0.00000207       0.00003690
O        5.01459688       5.01458818       1.56966838       0.00000264       0.00000207       0.00003690
O        8.35766203       5.01458757       1.56966841       0.00000264       0.00000207       0.00003690
H        0.55848965       0.55849564       3.77668187      -0.00003207      -0.00003653       0.00001227
H        3.90155480       0.55849503       3.77668190      -0.00003207      -0.00003653       0.00001227
H        7.24461996       0.55849442       3.77668193      -0.00003207      -0.00003653       0.00001227
H        0.55848904       3.90155736       3.77668174      -0.00003207      -0.00003653       0.00001227
H        3.90155419       3.90155675       3.77668177      -0.00003207      -0.00003653       0.00001227
H        7.24461935       3.90155614       3.77668180      -0.00003207      -0.00003653       0.00001227
H        2.78456383       2.78458734       3.77668851       0.00004437       0.00001067       0.00000040
H        6.12762899       2.78458673       3.77668854       0.00004437       0.00001067       0.00000040
H        9.47069414       2.78458612       3.77668857       0.00004437       0.00001067       0.00000040
H        2.78456322       6.12764906       3.77668837       0.00004437       0.00001067       0.00000040
H        6.12762837       6.12764845       3.77668840       0.00004437       0.00001067       0.00000040
H        9.47069353       6.12764784       3.77668843       0.00004437       0.00001067       0.00000040
H        2.23003129       1.11303775       5.38283219       0.00001268      -0.00002453       0.00001996
H        5.57309645       1.11303714       5.38283222       0.00001268      -0.00002453       0.00001996
H        8.91616160       1.11303653       5.38283225       0.00001268      -0.00002453       0.00001996
H        2.23003068       4.45609947       5.38283206       0.00001268      -0.00002453       0.00001996
H        5.57309583       4.45609886       5.38283209       0.00001268      -0.00002453       0.00001996
H        8.91616099       4.45609825       5.38283212       0.00001268      -0.00002453       0.00001996
H        1.11304892       2.22999795       5.38286141      -0.00003474       0.00005751      -0.00002987
H        4.45611407       2.22999734       5.38286144      -0.00003474       0.00005751      -0.00002987
H        7.79917923       2.22999673       5.38286147      -0.00003474       0.00005751      -0.00002987
H        1.11304831       5.57305967       5.38286127      -0.00003474       0.00005751      -0.00002987
H        4.45611346       5.57305906       5.38286130      -0.00003474       0.00005751      -0.00002987
H        7.79917862       5.57305845       5.38286133      -0.00003474       0.00005751      -0.00002987
O       10.02919036       0.00000453       6.38818797       0.00000711      -0.00000918      -0.00003965
O        3.34306005       0.00000575       6.38818792       0.00000711      -0.00000918      -0.00003965
O        6.68612521       0.00000514       6.38818794       0.00000711      -0.00000918      -0.00003965
O       10.02918975       3.34306624       6.38818784       0.00000711      -0.00000918      -0.00003965
O        3.34305944       3.34306746       6.38818778       0.00000711      -0.00000918      -0.00003965
O        6.68612460       3.34306685       6.38818781       0.00000711      -0.00000918      -0.00003965
O        1.67153228       1.67152699       4.78200597       0.00000264       0.00000207       0.00003690
O        5.01459743       1.67152638       4.78200600       0.00000264       0.00000207       0.00003690
O        8.35766259       1.67152577       4.78200603       0.00000264       0.00000207       0.00003690
O        1.67153167       5.01458871       4.78200583       0.00000264       0.00000207       0.00003690
O        5.01459682       5.01458810       4.78200586       0.00000264       0.00000207       0.00003690
O        8.35766198       5.01458749       4.78200589       0.00000264       0.00000207       0.00003690
H        0.55848848       7.24461915       0.56434412      -0.00003207      -0.00003653       0.00001227
H        3.90155364       7.24461854       0.56434415      -0.00003207      -0.00003653       0.00001227
H        7.24461879       7.24461793       0.56434418      -0.00003207      -0.00003653       0.00001227
H        0.55848787      10.58768087       0.56434399      -0.00003207      -0.00003653       0.00001227
H        3.90155303      10.58768026       0.56434402      -0.00003207      -0.00003653       0.00001227
H        7.24461818      10.58767965       0.56434404      -0.00003207      -0.00003653       0.00001227
H        2.78456266       9.47071085       0.56435076       0.00004437       0.00001067       0.00000040
H        6.12762782       9.47071024       0.56435078       0.00004437       0.00001067       0.00000040
H        9.47069297       9.47070963       0.56435081       0.00004437       0.00001067       0.00000040
H        2.78456205      12.81377257       0.56435062       0.00004437       0.00001067       0.00000040
H        6.12762721      12.81377196       0.56435065       0.00004437       0.00001067       0.00000040
H        9.47069236      12.81377135       0.56435068       0.00004437       0.00001067       0.00000040
H        2.23003012       7.79916126       2.17049444       0.00001268      -0.00002453       0.00001996
H        5.57309528       7.79916065       2.17049447       0.00001268      -0.00002453       0.00001996
H        8.91616043       7.79916004       2.17049450       0.00001268      -0.00002453       0.00001996
H        2.23002951      11.14222298       2.17049430       0.00001268      -0.00002453       0.00001996
H        5.57309467      11.14222237       2.17049433       0.00001268      -0.00002453       0.00001996
H        8.91615982      11.14222176       2.17049436       0.00001268      -0.00002453       0.00001996
H        1.11304775       8.91612146       2.17052366      -0.00003474       0.00005751      -0.00002987
H        4.45611291       8.91612085       2.17052368      -0.00003474       0.00005751      -0.00002987
H        7.79917806       8.91612024       2.17052371      -0.00003474       0.00005751      -0.00002987
H        1.11304714      12.25918318       2.17052352      -0.00003474       0.00005751      -0.00002987
H        4.45611230      12.25918257       2.17052355      -0.00003474       0.00005751      -0.00002987
H        7.79917745      12.25918196       2.17052358      -0.00003474       0.00005751      -0.00002987
O       10.02918919       6.68612804       3.17585022       0.00000711      -0.00000918      -0.00003965
O        3.34305888       6.68612926       3.17585016       0.00000711      -0.00000918      -0.00003965
O        6.68612404       6.68612865       3.17585019       0.00000711      -0.00000918      -0.00003965
O       10.02918858      10.02918975       3.17585009       0.00000711      -0.00000918      -0.00003965
O        3.34305827      10.02919097       3.17585003       0.00000711      -0.00000918      -0.00003965
O        6.68612343      10.02919036       3.17585006       0.00000711      -0.00000918      -0.00003965
O        1.67153111       8.35765050       1.56966821       0.00000264       0.00000207       0.00003690
O        5.01459627       8.35764989       1.56966824       0.00000264       0.00000207       0.00003690
O        8.35766142       8.35764928       1.56966827       0.00000264       0.00000207       0.00003690
O        1.67153050      11.70071222       1.56966808       0.00000264       0.00000207       0.00003690
O        5.01459566      11.70071161       1.56966811       0.00000264       0.00000207       0.00003690
O        8.35766081      11.70071100       1.56966814       0.00000264       0.00000207       0.00003690
H        0.55848843       7.24461907       3.77668161      -0.00003207      -0.00003653       0.00001227
H        3.90155358       7.24461846       3.77668163      -0.00003207      -0.00003653       0.00001227
H        7.24461874       7.24461785       3.77668166      -0.00003207      -0.00003653       0.00001227
H        0.55848782      10.58768079       3.77668147      -0.00003207      -0.00003653       0.00001227
H        3.90155297      10.58768018       3.77668150      -0.00003207      -0.00003653       0.00001227
H        7.24461813      10.58767957       3.77668153      -0.00003207      -0.00003653       0.00001227
H        2.78456261       9.47071077       3.77668824       0.00004437       0.00001067       0.00000040
H        6.12762776       9.47071016       3.77668827       0.00004437       0.00001067       0.00000040
H        9.47069292       9.47070955       3.77668830       0.00004437       0.00001067       0.00000040
H        2.78456200      12.81377249       3.77668810       0.00004437       0.00001067       0.00000040
H        6.12762715      12.81377188       3.77668813       0.00004437       0.00001067       0.00000040
H        9.47069231      12.81377127       3.77668816       0.00004437       0.00001067       0.00000040
H        2.23003007       7.79916118       5.38283192       0.00001268      -0.00002453       0.00001996
H        5.57309522       7.79916057       5.38283195       0.00001268      -0.00002453       0.00001996
H        8.91616038       7.79915996       5.38283198       0.00001268      -0.00002453       0.00001996
H        2.23002946      11.14222290       5.38283179       0.00001268      -0.00002453       0.00001996
H        5.57309461      11.14222229       5.38283182       0.00001268      -0.00002453       0.00001996
H        8.91615977      11.14222168       5.38283185       0.00001268      -0.00002453       0.00001996
H        1.11304770       8.91612138       5.38286114      -0.00003474       0.00005751      -0.00002987
H        4.45611285       8.91612077       5.38286117      -0.00003474       0.00005751      -0.00002987
H        7.79917801       8.91612016       5.38286120      -0.00003474       0.00005751      -0.00002987
H        1.11304709      12.25918310       5.38286100      -0.00003474       0.00005751      -0.00002987
H        4.45611224      12.25918249       5.38286103      -0.00003474       0.00005751      -0.00002987
H        7.79917740      12.25918188       5.38286106      -0.00003474       0.00005751      -0.00002987
O       10.02918914       6.68612796       6.38818770       0.00000711      -0.00000918      -0.00003965
O        3.34305883       6.68612918       6.38818765       0.00000711      -0.00000918      -0.00003965
O        6.68612398       6.68612857       6.38818768       0.00000711      -0.00000918      -0.00003965
O       10.02918853      10.02918967       6.38818757       0.00000711      -0.00000918      -0.00003965
O        3.34305822      10.02919090       6.38818751       0.00000711      -0.00000918      -0.00003965
O        6.68612337      10.02919029       6.38818754       0.00000711      -0.00000918      -0.00003965
O        1.67153106       8.35765043       4.78200570       0.00000264       0.00000207       0.00003690
O        5.01459621       8.35764982       4.78200573       0.00000264       0.00000207       0.00003690
O        8.35766137       8.35764920       4.78200576       0.00000264       0.00000207       0.00003690
O        1.67153045      11.70071214       4.78200556       0.00000264       0.00000207       0.00003690
O        5.01459560      11.70071153       4.78200559       0.00000264       0.00000207       0.00003690
O        8.35766076      11.70071092       4.78200562       0.00000264       0.00000207       0.00003690
H       10.58768517       0.55849389       0.56434448      -0.00003207      -0.00003653       0.00001227
H       13.93075032       0.55849328       0.56434451      -0.00003207      -0.00003653       0.00001227
H       17.27381548       0.55849267       0.56434453      -0.00003207      -0.00003653       0.00001227
H       10.58768456       3.90155560       0.56434434      -0.00003207      -0.00003653       0.00001227
H       13.93074971       3.90155499       0.56434437      -0.00003207      -0.00003653       0.00001227
H       17.27381486       3.90155438       0.56434440      -0.00003207      -0.00003653       0.00001227
H       12.81375935       2.78458559       0.56435111       0.00004437       0.00001067       0.00000040
H       16.15682450       2.78458498       0.56435114       0.00004437       0.00001067       0.00000040
H       19.49988966       2.78458437       0.56435117       0.00004437       0.00001067       0.00000040
H       12.81375874       6.12764730       0.56435098       0.00004437       0.00001067       0.00000040
H       16.15682389       6.12764669       0.56435101       0.00004437       0.00001067       0.00000040
H       19.49988905       6.12764608       0.56435103       0.00004437       0.00001067       0.00000040
H       12.25922681       1.11303600       2.17049480       0.00001268      -0.00002453       0.00001996
H       15.60229196       1.11303539       2.17049482       0.00001268      -0.00002453       0.00001996
H       18.94535712       1.11303478       2.17049485       0.00001268      -0.00002453       0.00001996
H       12.25922620       4.45609771       2.17049466       0.00001268      -0.00002453       0.00001996
H       15.60229135       4.45609710       2.17049469       0.00001268      -0.00002453       0.00001996
H       18.94535651       4.45609649       2.17049472       0.00001268      -0.00002453       0.00001996
H       11.14224444       2.22999620       2.17052401      -0.00003474       0.00005751      -0.00002987
H       14.48530959       2.22999559       2.17052404      -0.00003474       0.00005751      -0.00002987
H       17.82837475       2.22999498       2.17052407      -0.00003474       0.00005751      -0.00002987
H       11.14224383       5.57305792       2.17052388      -0.00003474       0.00005751      -0.00002987
H       14.48530898       5.57305731       2.17052391      -0.00003474       0.00005751      -0.00002987
H       17.82837414       5.57305669       2.17052393      -0.00003474       0.00005751      -0.00002987
O       20.05838588       0.00000277       3.17585058       0.00000711      -0.00000918      -0.00003965
O       13.37225557       0.00000400       3.17585052       0.00000711      -0.00000918      -0.00003965
O       16.71532072       0.00000339       3.17585055       0.00000711      -0.00000918      -0.00003965
O       20.05838527       3.34306449       3.17585044       0.00000711      -0.00000918      -0.00003965
O       13.37225496       3.34306571       3.17585038       0.00000711      -0.00000918      -0.00003965
O       16.71532011       3.34306510       3.17585041       0.00000711      -0.00000918      -0.00003965
O       11.70072780       1.67152524       1.56966857       0.00000264       0.00000207       0.00003690
O       15.04379295       1.67152463       1.56966860       0.00000264       0.00000207       0.00003690
O       18.38685811       1.67152402       1.56966863       0.00000264       0.00000207       0.00003690
O       11.70072719       5.01458696       1.56966844       0.00000264       0.00000207       0.00003690
O       15.04379234       5.01458635       1.56966846       0.00000264       0.00000207       0.00003690
O       18.38685750       5.01458574       1.56966849       0.00000264       0.00000207       0.00003690
H       10.58768511       0.55849381       3.77668196      -0.00003207      -0.00003653       0.00001227
H       13.93075027       0.55849320       3.77668199      -0.00003207      -0.00003653       0.00001227
H       17.27381542       0.55849259       3.77668202      -0.00003207      -0.00003653       0.00001227
H       10.58768450       3.90155553       3.77668183      -0.00003207      -0.00003653       0.00001227
H       13.93074966       3.90155491       3.77668185      -0.00003207      -0.00003653       0.00001227
H       17.27381481       3.90155430       3.77668188      -0.00003207      -0.00003653       0.00001227
H       12.81375929       2.78458551       3.77668859       0.00004437       0.00001067       0.00000040
H       16.15682445       2.78458490       3.77668862       0.00004437       0.00001067       0.00000040
H       19.49988960       2.78458429       3.77668865       0.00004437       0.00001067       0.00000040
H       12.81375868       6.12764723       3.77668846       0.00004437       0.00001067       0.00000040
H       16.15682384       6.12764662       3.77668849       0.00004437       0.00001067       0.00000040
H       19.49988899       6.12764600       3.77668852       0.00004437       0.00001067       0.00000040
H       12.25922675       1.11303592       5.38283228       0.00001268      -0.00002453       0.00001996
H       15.60229191       1.11303531       5.38283231       0.00001268      -0.00002453       0.00001996
H       18.94535706       1.11303470       5.38283234       0.00001268      -0.00002453       0.00001996
H       12.25922614       4.45609764       5.38283214       0.00001268      -0.00002453       0.00001996
H       15.60229130       4.45609703       5.38283217       0.00001268      -0.00002453       0.00001996
H       18.94535645       4.45609642       5.38283220       0.00001268      -0.00002453       0.00001996
H       11.14224438       2.22999612       5.38286150      -0.00003474       0.00005751      -0.00002988
H       14.48530954       2.22999551       5.38286152      -0.00003474       0.00005751      -0.00002987
H       17.82837469       2.22999490       5.38286155      -0.00003474       0.00005751      -0.00002987
H       11.14224377       5.57305784       5.38286136      -0.00003474       0.00005751      -0.00002987
H       14.48530893       5.57305723       5.38286139      -0.00003474       0.00005751      -0.00002987
H       17.82837408       5.57305662       5.38286142      -0.00003474       0.00005751      -0.00002987
O       20.05838582       0.00000270       6.38818806       0.00000711      -0.00000918      -0.00003965
O       13.37225552       0.00000392       6.38818800       0.00000711      -0.00000918      -0.00003965
O       16.71532067       0.00000331       6.38818803       0.00000711      -0.00000918      -0.00003965
O       20.05838521       3.34306441       6.38818793       0.00000711      -0.00000918      -0.00003965
O       13.37225490       3.34306563       6.38818787       0.00000711      -0.00000918      -0.00003965
O       16.71532006       3.34306502       6.38818790       0.00000711      -0.00000918      -0.00003965
O       11.70072774       1.67152516       4.78200605       0.00000264       0.00000207       0.00003690
O       15.04379290       1.67152455       4.78200608       0.00000264       0.00000207       0.00003690
O       18.38685805       1.67152394       4.78200611       0.00000264       0.00000207       0.00003690
O       11.70072713       5.01458688       4.78200592       0.00000264       0.00000207       0.00003690
O       15.04379229       5.01458627       4.78200595       0.00000264       0.00000207       0.00003690
O       18.38685744       5.01458566       4.78200598       0.00000264       0.00000207       0.00003690
H       10.58768395       7.24461732       0.56434421      -0.00003207      -0.00003653       0.00001227
H       13.93074910       7.24461671       0.56434424      -0.00003207      -0.00003653       0.00001227
H       17.27381425       7.24461610       0.56434427      -0.00003207      -0.00003653       0.00001227
H       10.58768333      10.58767904       0.56434407      -0.00003207      -0.00003653       0.00001227
H       13.93074849      10.58767842       0.56434410      -0.00003207      -0.00003653       0.00001227
H       17.27381364      10.58767781       0.56434413      -0.00003207      -0.00003653       0.00001227
H       12.81375813       9.47070902       0.56435084       0.00004437       0.00001067       0.00000040
H       16.15682328       9.47070841       0.56435087       0.00004437       0.00001067       0.00000040
H       19.49988844       9.47070780       0.56435090       0.00004437       0.00001067       0.00000040
H       12.81375752      12.81377074       0.56435071       0.00004437       0.00001067       0.00000040
H       16.15682267      12.81377013       0.56435074       0.00004437       0.00001067       0.00000040
H       19.49988783      12.81376951       0.56435076       0.00004437       0.00001067       0.00000040
H       12.25922559       7.79915943       2.17049453       0.00001268      -0.00002453       0.00001996
H       15.60229074       7.79915882       2.17049455       0.00001268      -0.00002453       0.00001996
H       18.94535590       7.79915821       2.17049458       0.00001268      -0.00002453       0.00001996
H       12.25922498      11.14222115       2.17049439       0.00001268      -0.00002453       0.00001996
H       15.60229013      11.14222054       2.17049442       0.00001268      -0.00002453       0.00001996
H       18.94535529      11.14221993       2.17049445       0.00001268      -0.00002453       0.00001996
H       11.14224322       8.91611963       2.17052374      -0.00003474       0.00005751      -0.00002987
H       14.48530837       8.91611902       2.17052377      -0.00003474       0.00005751      -0.00002987
H       17.82837353       8.91611841       2.17052380      -0.00003474       0.00005751      -0.00002987
H       11.14224261      12.25918135       2.17052361      -0.00003474       0.00005751      -0.00002987
H       14.48530776      12.25918074       2.17052364      -0.00003474       0.00005751      -0.00002987
H       17.82837292      12.25918013       2.17052366      -0.00003474       0.00005751      -0.00002987
O       20.05838466       6.68612621       3.17585031       0.00000711      -0.00000918      -0.00003965
O       13.37225435       6.68612743       3.17585025       0.00000711      -0.00000918      -0.00003965
O       16.71531950       6.68612682       3.17585028       0.00000711      -0.00000918      -0.00003965
O       20.05838405      10.02918792       3.17585017       0.00000711      -0.00000918      -0.00003965
O       13.37225374      10.02918914       3.17585011       0.00000711      -0.00000918      -0.00003965
O       16.71531889      10.02918853       3.17585014       0.00000711      -0.00000918      -0.00003965
O       11.70072658       8.35764867       1.56966830       0.00000264       0.00000207       0.00003690
O       15.04379173       8.35764806       1.56966833       0.00000264       0.00000207       0.00003690
O       18.38685689       8.35764745       1.56966836       0.00000264       0.00000207       0.00003690
O       11.70072597      11.70071039       1.56966817       0.00000264       0.00000207       0.00003690
O       15.04379112      11.70070978       1.56966820       0.00000264       0.00000207       0.00003690
O       18.38685628      11.70070917       1.56966822       0.00000264       0.00000207       0.00003690
H       10.58768389       7.24461724       3.77668169      -0.00003207      -0.00003653       0.00001227
H       13.93074905       7.24461663       3.77668172      -0.00003207      -0.00003653       0.00001227
H       17.27381420       7.24461602       3.77668175      -0.00003207      -0.00003653       0.00001227
H       10.58768328      10.58767896       3.77668156      -0.00003207      -0.00003653       0.00001227
H       13.93074844      10.58767835       3.77668159      -0.00003207      -0.00003653       0.00001227
H       17.27381359      10.58767774       3.77668161      -0.00003207      -0.00003653       0.00001227
H       12.81375807       9.47070894       3.77668833       0.00004437       0.00001067       0.00000040
H       16.15682323       9.47070833       3.77668835       0.00004437       0.00001067       0.00000040
H       19.49988838       9.47070772       3.77668838       0.00004437       0.00001067       0.00000040
H       12.81375746      12.81377066       3.77668819       0.00004437       0.00001067       0.00000040
H       16.15682262      12.81377005       3.77668822       0.00004437       0.00001067       0.00000040
H       19.49988777      12.81376944       3.77668825       0.00004437       0.00001067       0.00000040
H       12.25922553       7.79915935       5.38283201       0.00001268      -0.00002453       0.00001996
H       15.60229069       7.79915874       5.38283204       0.00001268      -0.00002453       0.00001996
H       18.94535584       7.79915813       5.38283207       0.00001268      -0.00002453       0.00001996
H       12.25922492      11.14222107       5.38283188       0.00001268      -0.00002453       0.00001996
H       15.60229008      11.14222046       5.38283190       0.00001268      -0.00002453       0.00001996
H       18.94535523      11.14221985       5.38283193       0.00001268      -0.00002453       0.00001996
H       11.14224316       8.91611955       5.38286123      -0.00003474       0.00005751      -0.00002987
H       14.48530832       8.91611894       5.38286125      -0.00003474       0.00005751      -0.00002987
H       17.82837347       8.91611833       5.38286128      -0.00003474       0.00005751      -0.00002987
H       11.14224255      12.25918127       5.38286109      -0.00003474       0.00005751      -0.00002987
H       14.48530771      12.25918066       5.38286112      -0.00003474       0.00005751      -0.00002987
H       17.82837286      12.25918005       5.38286115      -0.00003474       0.00005751      -0.00002987
O       20.05838460       6.68612613       6.38818779       0.00000711      -0.00000918      -0.00003965
O       13.37225429       6.68612735       6.38818773       0.00000711      -0.00000918      -0.00003965
O       16.71531945       6.68612674       6.38818776       0.00000711      -0.00000918      -0.00003965
O       20.05838399      10.02918784       6.38818766       0.00000711      -0.00000918      -0.00003965