24
Lattice="4.631005920343982 1.9625260208558915e-15 -2.225738598661245e-14 1.948058793409664e-15 4.631005307858497 1.1546521636259314e-11 -3.169651624396968e-14 1.6919623774000745e-11 6.679488752336227" Properties=species:S:1:pos:R:3:forces:R:3 energy=-119.1039144576228 stress="-2.1334437248013427e-06 4.1131892976377515e-15 -3.14756962340748e-14 4.1131892976377515e-15 -3.413773553260363e-06 -1.2363040208072524e-11 -3.14756962340748e-14 -1.2363040208072524e-11 2.686692553125966e-06" pbc="T T T"
H        6.47601981       7.26510560       6.64177530      -0.00000540       0.00003870      -0.00003113
H        8.79152689       9.58061749       9.98150693       0.00000538       0.00000689       0.00000174
H        5.68692723       8.79152572       8.31162913      -0.00000400       0.00000539       0.00001536
H        9.58061949       6.47601895      11.65136854       0.00000170      -0.00000539       0.00002116
H        8.79152688       7.26510716       7.30192309       0.00000540       0.00002024       0.00001977
H        8.79152689       5.68692719       7.30193107       0.00000538      -0.00000689      -0.00000174
H        9.58061949       8.79152572       5.63206945       0.00000170       0.00000539      -0.00002116
H        5.68692723       6.47601895       8.97180886      -0.00000400      -0.00000539      -0.00001536
H        8.00243785       8.79152572       5.63206147      -0.00001504       0.00000540       0.00000035
H        8.00243785       6.47601896      11.65137652      -0.00001504      -0.00000540      -0.00000035
H        6.47601981       5.68692874       6.64176732      -0.00000539      -0.00002535      -0.00000963
H        7.26510883       8.79152572       8.31163711       0.00001734       0.00000540      -0.00000615
H        7.26510883       6.47601896       8.97180088       0.00001734      -0.00000540       0.00000615
H        8.79152688       8.00243752       9.98151491       0.00000540      -0.00002024      -0.00001977
H        6.47601981       9.58061594      10.64167067      -0.00000539       0.00002535       0.00000963
H        6.47601981       8.00243908      10.64166269      -0.00000540      -0.00003870       0.00003113
O        6.47601480       6.47602058       6.03943158       0.00003194      -0.00000303       0.00001661
O        6.47602144       8.79153073       7.70929643      -0.00000303      -0.00003194       0.00001670
O        8.79152526       6.47601394      11.04903617       0.00000303       0.00003195       0.00002019
O        8.79153190       6.47602058       7.90426500      -0.00003194      -0.00000303      -0.00000832
O        8.79152526       8.79153073       6.23440182       0.00000303      -0.00003195      -0.00002019
O        6.47602144       6.47601394       9.57414156      -0.00000303       0.00003194      -0.00001670
O        8.79153190       8.79152410       9.37917300      -0.00003194       0.00000303       0.00000832
O        6.47601480       8.79152410      11.24400641       0.00003194       0.00000303      -0.00001661
