192
Lattice="9.26204396308036 -5.685308776170264e-15 6.46396132875142e-14 -5.686271192274581e-15 9.26204466549497 1.1092767530556899e-09 9.821832061354049e-14 1.6269881353428834e-09 13.358882325438461" Properties=species:S:1:pos:R:3:forces:R:3 energy=-952.8313156098907 stress="-1.285575622157753e-06 -1.0525735114663162e-14 1.7522431931096803e-13 -1.0525735114663162e-14 1.0985845580492593e-06 -1.7115159202332345e-09 1.7522431931096803e-13 -1.7115159202332345e-09 2.337879877316665e-06" pbc="T T T"
H        6.47603630       7.26511145       6.64172859       0.00002542       0.00000527      -0.00002583
H        8.79156346       9.58067652       9.98141062      -0.00002575      -0.00005299       0.00004276
H        5.68692673       8.79156407       8.31158487       0.00003668      -0.00002522      -0.00001771
H        9.58067133       6.47603675      11.65130190      -0.00001752       0.00002483      -0.00002108
H        8.79156340       7.26511347       7.30187597      -0.00002548      -0.00002135       0.00000648
H        8.79156346       5.68692429       7.30190424      -0.00002575       0.00005299      -0.00004276
H        9.58067133       8.79156405       5.63201296      -0.00001752      -0.00002483       0.00002108
H        5.68692673       6.47603674       8.97172999       0.00003668       0.00002522       0.00001771
H        8.00249104       8.79156399       5.63198460      -0.00001353      -0.00002456       0.00007037
H        8.00249104       6.47603682      11.65133026      -0.00001353       0.00002456      -0.00007037
H        6.47603624       5.68692629       6.64170043       0.00002569       0.00002638       0.00002287
H        7.26511011       8.79156400       8.31161316      -0.00000555      -0.00002495      -0.00006691
H        7.26511011       6.47603680       8.97170169      -0.00000555       0.00002495       0.00006691
H        8.79156340       8.00248734       9.98143888      -0.00002548       0.00002135      -0.00000648
H        6.47603624       9.58067452      10.64161443       0.00002569      -0.00002638      -0.00002287
H        6.47603630       8.00248936      10.64158626       0.00002542      -0.00000527       0.00002583
O        6.47605044       6.47603017       6.03937905      -0.00001363      -0.00000048       0.00005485
O        6.47602975       8.79155013       7.70926112      -0.00000078       0.00001248       0.00000478
O        8.79156984       6.47605053      11.04897680       0.00000083      -0.00001161       0.00002370
O        8.79154926       6.47603022       7.90422311       0.00001363      -0.00000069      -0.00004543
O        8.79156984       8.79155028       6.23433805       0.00000083       0.00001161      -0.00002370
O        6.47602975       6.47605068       9.57405373      -0.00000078      -0.00001248      -0.00000478
O        8.79154926       8.79157059       9.37909174       0.00001363       0.00000069       0.00004543
O        6.47605044       8.79157063      11.24393580      -0.00001363       0.00000048      -0.00005485
H        6.47603630       7.26511145      13.32116976       0.00002542       0.00000527      -0.00002583
H        8.79156346       9.58067652      16.66085178      -0.00002575      -0.00005299       0.00004276
H        5.68692673       8.79156407      14.99102603       0.00003668      -0.00002522      -0.00001771
H        9.58067133       6.47603676      18.33074306      -0.00001752       0.00002483      -0.00002108
H        8.79156340       7.26511347      13.98131713      -0.00002548      -0.00002135       0.00000648
H        8.79156346       5.68692429      13.98134540      -0.00002575       0.00005299      -0.00004276
H        9.58067133       8.79156406      12.31145412      -0.00001752      -0.00002483       0.00002108
H        5.68692673       6.47603674      15.65117115       0.00003668       0.00002522       0.00001771
H        8.00249104       8.79156399      12.31142576      -0.00001353      -0.00002456       0.00007037
H        8.00249104       6.47603682      18.33077142      -0.00001353       0.00002456      -0.00007037
H        6.47603624       5.68692629      13.32114159       0.00002569       0.00002638       0.00002287
H        7.26511011       8.79156401      14.99105432      -0.00000555      -0.00002495      -0.00006691
H        7.26511011       6.47603681      15.65114285      -0.00000555       0.00002495       0.00006691
H        8.79156340       8.00248734      16.66088005      -0.00002548       0.00002135      -0.00000648
H        6.47603624       9.58067452      17.32105559       0.00002569      -0.00002638      -0.00002287
H        6.47603630       8.00248936      17.32102742       0.00002542      -0.00000527       0.00002583
O        6.47605044       6.47603018      12.71882022      -0.00001363      -0.00000048       0.00005485
O        6.47602975       8.79155013      14.38870228      -0.00000078       0.00001248       0.00000478
O        8.79156984       6.47605053      17.72841796       0.00000083      -0.00001161       0.00002370
O        8.79154926       6.47603022      14.58366427       0.00001363      -0.00000069      -0.00004543
O        8.79156984       8.79155028      12.91377922       0.00000083       0.00001161      -0.00002370
O        6.47602975       6.47605068      16.25349490      -0.00000078      -0.00001248      -0.00000478
O        8.79154926       8.79157059      16.05853291       0.00001363       0.00000069       0.00004543
O        6.47605044       8.79157064      17.92337696      -0.00001363       0.00000048      -0.00005485
H        6.47603630      11.89613379       6.64172859       0.00002542       0.00000527      -0.00002583
H        8.79156346      14.21169885       9.98141062      -0.00002575      -0.00005299       0.00004276
H        5.68692673      13.42258640       8.31158487       0.00003668      -0.00002522      -0.00001771
H        9.58067133      11.10705909      11.65130190      -0.00001752       0.00002483      -0.00002108
H        8.79156340      11.89613581       7.30187597      -0.00002548      -0.00002135       0.00000648
H        8.79156346      10.31794662       7.30190424      -0.00002575       0.00005299      -0.00004276
H        9.58067133      13.42258639       5.63201296      -0.00001752      -0.00002483       0.00002108
H        5.68692673      11.10705908       8.97172999       0.00003668       0.00002522       0.00001771
H        8.00249104      13.42258633       5.63198460      -0.00001353      -0.00002456       0.00007037
H        8.00249104      11.10705915      11.65133026      -0.00001353       0.00002456      -0.00007037
H        6.47603624      10.31794862       6.64170043       0.00002569       0.00002638       0.00002287
H        7.26511011      13.42258634       8.31161316      -0.00000555      -0.00002495      -0.00006691
H        7.26511011      11.10705914       8.97170169      -0.00000555       0.00002495       0.00006691
H        8.79156340      12.63350967       9.98143889      -0.00002548       0.00002135      -0.00000648
H        6.47603624      14.21169685      10.64161443       0.00002569      -0.00002638      -0.00002287
H        6.47603630      12.63351169      10.64158626       0.00002542      -0.00000527       0.00002583
O        6.47605044      11.10705251       6.03937906      -0.00001363      -0.00000048       0.00005485
O        6.47602975      13.42257246       7.70926112      -0.00000078       0.00001248       0.00000478
O        8.79156984      11.10707286      11.04897680       0.00000083      -0.00001161       0.00002370
O        8.79154926      11.10705256       7.90422311       0.00001363      -0.00000069      -0.00004543
O        8.79156984      13.42257261       6.23433805       0.00000083       0.00001161      -0.00002370
O        6.47602975      11.10707301       9.57405373      -0.00000078      -0.00001248      -0.00000478
O        8.79154926      13.42259292       9.37909174       0.00001363       0.00000069       0.00004543
O        6.47605044      13.42259297      11.24393580      -0.00001363       0.00000048      -0.00005485
H        6.47603630      11.89613379      13.32116976       0.00002542       0.00000527      -0.00002583
H        8.79156346      14.21169885      16.66085178      -0.00002575      -0.00005299       0.00004276
H        5.68692673      13.42258640      14.99102603       0.00003668      -0.00002522      -0.00001771
H        9.58067133      11.10705909      18.33074306      -0.00001752       0.00002483      -0.00002108
H        8.79156340      11.89613581      13.98131713      -0.00002548      -0.00002135       0.00000648
H        8.79156346      10.31794662      13.98134540      -0.00002575       0.00005299      -0.00004276
H        9.58067133      13.42258639      12.31145412      -0.00001752      -0.00002483       0.00002108
H        5.68692673      11.10705908      15.65117115       0.00003668       0.00002522       0.00001771
H        8.00249104      13.42258633      12.31142576      -0.00001353      -0.00002456       0.00007037
H        8.00249104      11.10705915      18.33077142      -0.00001353       0.00002456      -0.00007037
H        6.47603624      10.31794862      13.32114159       0.00002569       0.00002638       0.00002287
H        7.26511011      13.42258634      14.99105433      -0.00000555      -0.00002495      -0.00006691
H        7.26511011      11.10705914      15.65114285      -0.00000555       0.00002495       0.00006691
H        8.79156340      12.63350967      16.66088005      -0.00002548       0.00002135      -0.00000648
H        6.47603624      14.21169685      17.32105559       0.00002569      -0.00002638      -0.00002287
H        6.47603630      12.63351169      17.32102742       0.00002542      -0.00000527       0.00002583
O        6.47605044      11.10705251      12.71882022      -0.00001363      -0.00000048       0.00005485
O        6.47602975      13.42257246      14.38870228      -0.00000078       0.00001248       0.00000478
O        8.79156984      11.10707286      17.72841796       0.00000083      -0.00001161       0.00002370
O        8.79154926      11.10705256      14.58366427       0.00001363      -0.00000069      -0.00004543
O        8.79156984      13.42257261      12.91377922       0.00000083       0.00001161      -0.00002370
O        6.47602975      11.10707301      16.25349490      -0.00000078      -0.00001248      -0.00000478
O        8.79154926      13.42259292      16.05853291       0.00001363       0.00000069       0.00004543
O        6.47605044      13.42259297      17.92337696      -0.00001363       0.00000048      -0.00005485
H       11.10705828       7.26511145       6.64172859       0.00002542       0.00000527      -0.00002583
H       13.42258544       9.58067652       9.98141062      -0.00002575      -0.00005299       0.00004276
H       10.31794871       8.79156407       8.31158487       0.00003668      -0.00002522      -0.00001771
H       14.21169331       6.47603675      11.65130190      -0.00001752       0.00002483      -0.00002108
H       13.42258538       7.26511347       7.30187597      -0.00002548      -0.00002135       0.00000648
H       13.42258544       5.68692429       7.30190424      -0.00002575       0.00005299      -0.00004276
H       14.21169331       8.79156405       5.63201296      -0.00001752      -0.00002483       0.00002108
H       10.31794871       6.47603674       8.97172999       0.00003668       0.00002522       0.00001771
H       12.63351302       8.79156399       5.63198460      -0.00001353      -0.00002456       0.00007037
H       12.63351302       6.47603682      11.65133026      -0.00001353       0.00002456      -0.00007037
H       11.10705822       5.68692629       6.64170043       0.00002569       0.00002638       0.00002287
H       11.89613209       8.79156400       8.31161316      -0.00000555      -0.00002495      -0.00006691
H       11.89613209       6.47603680       8.97170169      -0.00000555       0.00002495       0.00006691
H       13.42258538       8.00248734       9.98143888      -0.00002548       0.00002135      -0.00000648
H       11.10705822       9.58067452      10.64161443       0.00002569      -0.00002638      -0.00002287
H       11.10705828       8.00248936      10.64158626       0.00002542      -0.00000527       0.00002583
O       11.10707242       6.47603017       6.03937905      -0.00001363      -0.00000048       0.00005485
O       11.10705173       8.79155013       7.70926112      -0.00000078       0.00001248       0.00000478
O       13.42259182       6.47605053      11.04897680       0.00000083      -0.00001161       0.00002370
O       13.42257124       6.47603022       7.90422311       0.00001363      -0.00000069      -0.00004543
O       13.42259182       8.79155028       6.23433805       0.00000083       0.00001161      -0.00002370
O       11.10705173       6.47605068       9.57405373      -0.00000078      -0.00001248      -0.00000478
O       13.42257124       8.79157059       9.37909174       0.00001363       0.00000069       0.00004543
O       11.10707242       8.79157063      11.24393580      -0.00001363       0.00000048      -0.00005485
H       11.10705828       7.26511145      13.32116976       0.00002542       0.00000527      -0.00002583
H       13.42258544       9.58067652      16.66085178      -0.00002575      -0.00005299       0.00004276
H       10.31794871       8.79156407      14.99102603       0.00003668      -0.00002522      -0.00001771
H       14.21169331       6.47603676      18.33074306      -0.00001752       0.00002483      -0.00002108
H       13.42258538       7.26511347      13.98131713      -0.00002548      -0.00002135       0.00000648
H       13.42258544       5.68692429      13.98134540      -0.00002575       0.00005299      -0.00004276
H       14.21169331       8.79156406      12.31145412      -0.00001752      -0.00002483       0.00002108
H       10.31794871       6.47603674      15.65117115       0.00003668       0.00002522       0.00001771
H       12.63351302       8.79156399      12.31142576      -0.00001353      -0.00002456       0.00007037
H       12.63351302       6.47603682      18.33077142      -0.00001353       0.00002456      -0.00007037
H       11.10705822       5.68692629      13.32114159       0.00002569       0.00002638       0.00002287
H       11.89613209       8.79156401      14.99105432      -0.00000555      -0.00002495      -0.00006691
H       11.89613209       6.47603681      15.65114285      -0.00000555       0.00002495       0.00006691
H       13.42258538       8.00248734      16.66088005      -0.00002548       0.00002135      -0.00000648
H       11.10705822       9.58067452      17.32105559       0.00002569      -0.00002638      -0.00002287
H       11.10705828       8.00248936      17.32102742       0.00002542      -0.00000527       0.00002583
O       11.10707242       6.47603018      12.71882022      -0.00001363      -0.00000048       0.00005485
O       11.10705173       8.79155013      14.38870228      -0.00000078       0.00001248       0.00000478
O       13.42259182       6.47605053      17.72841796       0.00000083      -0.00001161       0.00002370
O       13.42257124       6.47603022      14.58366427       0.00001363      -0.00000069      -0.00004543
O       13.42259182       8.79155028      12.91377922       0.00000083       0.00001161      -0.00002370
O       11.10705173       6.47605068      16.25349490      -0.00000078      -0.00001248      -0.00000478
O       13.42257124       8.79157059      16.05853291       0.00001363       0.00000069       0.00004543
O       11.10707242       8.79157064      17.92337696      -0.00001363       0.00000048      -0.00005485
H       11.10705828      11.89613379       6.64172859       0.00002542       0.00000527      -0.00002583
H       13.42258544      14.21169885       9.98141062      -0.00002575      -0.00005299       0.00004276
H       10.31794871      13.42258640       8.31158487       0.00003668      -0.00002522      -0.00001771
H       14.21169331      11.10705909      11.65130190      -0.00001752       0.00002483      -0.00002108
H       13.42258538      11.89613581       7.30187597      -0.00002548      -0.00002135       0.00000648
H       13.42258544      10.31794662       7.30190424      -0.00002575       0.00005299      -0.00004276
H       14.21169331      13.42258639       5.63201296      -0.00001752      -0.00002483       0.00002108
H       10.31794871      11.10705908       8.97172999       0.00003668       0.00002522       0.00001771
H       12.63351302      13.42258633       5.63198460      -0.00001353      -0.00002456       0.00007037
H       12.63351302      11.10705915      11.65133026      -0.00001353       0.00002456      -0.00007037
H       11.10705822      10.31794862       6.64170043       0.00002569       0.00002638       0.00002287
H       11.89613209      13.42258634       8.31161316      -0.00000555      -0.00002495      -0.00006691
H       11.89613209      11.10705914       8.97170169      -0.00000555       0.00002495       0.00006691
H       13.42258538      12.63350967       9.98143889      -0.00002548       0.00002135      -0.00000648
H       11.10705822      14.21169685      10.64161443       0.00002569      -0.00002638      -0.00002287
H       11.10705828      12.63351169      10.64158626       0.00002542      -0.00000527       0.00002583
O       11.10707242      11.10705251       6.03937906      -0.00001363      -0.00000048       0.00005485
O       11.10705173      13.42257246       7.70926112      -0.00000078       0.00001248       0.00000478
O       13.42259182      11.10707286      11.04897680       0.00000083      -0.00001161       0.00002370
O       13.42257124      11.10705256       7.90422311       0.00001363      -0.00000069      -0.00004543
O       13.42259182      13.42257261       6.23433805       0.00000083       0.00001161      -0.00002370
O       11.10705173      11.10707301       9.57405373      -0.00000078      -0.00001248      -0.00000478
O       13.42257124      13.42259292       9.37909174       0.00001363       0.00000069       0.00004543
O       11.10707242      13.42259297      11.24393580      -0.00001363       0.00000048      -0.00005485
H       11.10705828      11.89613379      13.32116976       0.00002542       0.00000527      -0.00002583
H       13.42258544      14.21169885      16.66085178      -0.00002575      -0.00005299       0.00004276
H       10.31794871      13.42258640      14.99102603       0.00003668      -0.00002522      -0.00001771
H       14.21169331      11.10705909      18.33074306      -0.00001752       0.00002483      -0.00002108
H       13.42258538      11.89613581      13.98131713      -0.00002548      -0.00002135       0.00000648
H       13.42258544      10.31794662      13.98134540      -0.00002575       0.00005299      -0.00004276
H       14.21169331      13.42258639      12.31145412      -0.00001752      -0.00002483       0.00002108
H       10.31794871      11.10705908      15.65117115       0.00003668       0.00002522       0.00001771
H       12.63351302      13.42258633      12.31142576      -0.00001353      -0.00002456       0.00007037
H       12.63351302      11.10705915      18.33077142      -0.00001353       0.00002456      -0.00007037
H       11.10705822      10.31794862      13.32114159       0.00002569       0.00002638       0.00002287
H       11.89613209      13.42258634      14.99105433      -0.00000555      -0.00002495      -0.00006691
H       11.89613209      11.10705914      15.65114285      -0.00000555       0.00002495       0.00006691
H       13.42258538      12.63350967      16.66088005      -0.00002548       0.00002135      -0.00000648
H       11.10705822      14.21169685      17.32105559       0.00002569      -0.00002638      -0.00002287
H       11.10705828      12.63351169      17.32102742       0.00002542      -0.00000527       0.00002583
O       11.10707242      11.10705251      12.71882022      -0.00001363      -0.00000048       0.00005485
O       11.10705173      13.42257246      14.38870228      -0.00000078       0.00001248       0.00000478
O       13.42259182      11.10707286      17.72841796       0.00000083      -0.00001161       0.00002370
O       13.42257124      11.10705256      14.58366427       0.00001363      -0.00000069      -0.00004543
O       13.42259182      13.42257261      12.91377922       0.00000083       0.00001161      -0.00002370
O       11.10705173      11.10707301      16.25349490      -0.00000078      -0.00001248      -0.00000478
O       13.42257124      13.42259292      16.05853291       0.00001363       0.00000069       0.00004543
O       11.10707242      13.42259297      17.92337696      -0.00001363       0.00000048      -0.00005485
