6
Lattice="102.500081 0.0 0.0 0.0 102.83274 0.0 0.0 0.0 102.286044" Properties=species:S:1:pos:R:3:forces:R:3 #=T CELL(abcABC):=T 200.00000=T 90.00000=T Step:=T 67=T Bead:=T 0=T positionsangstrom=T cellatomic_unit=T energy=-28.639608027501083 stress="-3.146686796251175e-15 -1.5476238966011198e-15 2.186282713912864e-15 -1.5476238966011198e-15 6.329400817026266e-15 2.299762338376133e-15 2.186282713912864e-15 2.299762338376133e-15 -1.8712809427386858e-15" free_energy=-28.639608027501083 pbc="F F F"
O       50.89612846      50.36322962      50.78978254      -0.00001502       0.00000802       0.00000883
H       50.03522208      50.69404191      50.47933730       0.00001040      -0.00001902      -0.00000223
H       51.36258758      50.11548855      49.97246320       0.00002612       0.00000555      -0.00001124
O       52.15748502      52.77465570      51.34076357       0.00002315      -0.00001812      -0.00001843
H       52.51251302      52.80195500      52.24313561       0.00002336      -0.00001201      -0.00000250
H       51.73359983      51.88131023      51.25028588      -0.00006802       0.00003559       0.00002557
