3
Properties=species:S:1:pos:R:3:forces:R:3 energy=-14.27604309470074 stress="-inf inf inf inf inf inf inf inf -inf" free_energy=-14.27604309470074 pbc="F F F"
H        0.00000000      -0.06517057      -0.34824667       0.00000000       0.00930071       0.00721423
O        0.00000000       0.71676361       0.22571559       0.00000000      -0.00480748      -0.01733157
H       -0.00000000       0.34840696       1.12253107      -0.00000000      -0.00449323       0.01011735
