3
Properties=species:S:1:pos:R:3:forces:R:3 energy=-14.051440061306753 stress="-inf -inf -inf -inf -inf -inf -inf -inf inf" free_energy=-14.051440061306753 pbc="F F F"
H        0.00000000      -0.05745601      -0.36508770      -0.00000000      -0.05551970      -0.03945026
O        0.00000000       0.71177475       0.23064914       0.00000000       0.04213280       0.07995279
H        0.00000000       0.34568126       1.13443856       0.00000000       0.01338690      -0.04050253
