24
Lattice="4.84946537 0.0 0.0 0.0 4.84946537 0.0 0.0 0.0 7.05651379" Properties=species:S:1:pos:R:3:forces:R:3 energy=-118.88704555124866 pbc="T T T"
H        6.78151663       7.56806322       6.92996080      -0.00000010      -0.00000104      -0.00000334
H        9.20624937       9.99279602      10.45821760       0.00000010      -0.00000119      -0.00000322
H        5.99496997       9.20624937       8.69408914       0.00000119       0.00000010      -0.00000317
H        9.99279602       6.78151663      12.22234596      -0.00000119      -0.00000010      -0.00000311
H        9.20624937       7.56806322       7.80078736       0.00000010      -0.00000103       0.00000331
H        9.20624937       5.99496998       7.80078740       0.00000010       0.00000119       0.00000322
H        9.99279602       9.20624937       6.03665904      -0.00000119       0.00000010       0.00000311
H        5.99496997       6.78151663       9.56491586       0.00000119      -0.00000010       0.00000317
H        8.41970278       9.20624937       6.03665900       0.00000103       0.00000010       0.00000319
H        8.41970278       6.78151663      12.22234600       0.00000103      -0.00000010      -0.00000319
H        6.78151663       5.99496998       6.92996076      -0.00000010       0.00000120      -0.00000325
H        7.56806322       9.20624937       8.69408918      -0.00000103       0.00000010      -0.00000326
H        7.56806322       6.78151663       9.56491582      -0.00000103      -0.00000010       0.00000326
H        9.20624937       8.41970278      10.45821764       0.00000010       0.00000103      -0.00000331
H        6.78151663       9.99279602      11.32904424      -0.00000010      -0.00000120       0.00000325
H        6.78151663       8.41970278      11.32904420      -0.00000010       0.00000104       0.00000334
O        6.78151656       6.78151662       6.33242501       0.00000033       0.00000003       0.00000711
O        6.78151662       9.20624944       8.09655339       0.00000003      -0.00000033       0.00000720
O        9.20624938       6.78151656      11.62481022      -0.00000003       0.00000033       0.00000726
O        9.20624944       6.78151662       8.39832315      -0.00000033       0.00000003      -0.00000715
O        9.20624938       9.20624944       6.63419478      -0.00000003      -0.00000033      -0.00000726
O        6.78151662       6.78151656      10.16245161       0.00000003       0.00000033      -0.00000720
O        9.20624944       9.20624938       9.86068185      -0.00000033      -0.00000003       0.00000715
O        6.78151656       9.20624938      11.92657999       0.00000033      -0.00000003      -0.00000711
