84
Lattice="8.426067906061727 -1.2108240766747396e-08 -3.0537808355319047 -1.2423763815763773e-08 7.232267004624404 -5.5573253744435974e-09 -0.038904176920861476 -8.002848615745665e-09 9.990911576685328" Properties=species:S:1:pos:R:3:forces:R:3 energy=-418.186334173523 stress="-1.9530346180313823e-07 -9.94436318197968e-08 -9.78218950230413e-07 -9.94436318197968e-08 7.2334241857426734e-06 -9.972342871261735e-09 -9.78218950230413e-07 -9.972342871261735e-09 -7.584613186745019e-06" pbc="T T T"
H        2.93029975       4.69528075       1.98191663       0.00002201       0.00006130      -0.00003887
H        2.07285219       3.56020538       2.64721391      -0.00004242      -0.00004312       0.00001026
H        1.01033156       5.15908649       1.24567870      -0.00001453      -0.00001425      -0.00001800
H        4.03142013       6.62287269       2.03428667       0.00000284       0.00000085       0.00001724
H        4.89182258       5.39396233       2.68272275      -0.00000772      -0.00000980      -0.00002552
H       -0.42252277       5.40316687       0.62713776       0.00002389      -0.00001037      -0.00001403
H        1.99466949       3.28499063       0.30069071       0.00001937       0.00000532      -0.00000390
H        2.56967094       3.57674128       4.86988651       0.00000133       0.00001278      -0.00000292
H        1.36856740       2.59012609       4.64674111       0.00000289       0.00001337      -0.00001169
H        2.58649003       2.63665554      -1.06099136      -0.00000235      -0.00000533      -0.00001876
H        0.67165696       0.08328210       1.69270102      -0.00000194      -0.00000316      -0.00000909
H        2.67335416       1.01626461       1.51956730       0.00001130       0.00000033       0.00002176
H        3.21220783       0.35119091       0.21679064       0.00001342      -0.00000376      -0.00001206
H        0.39037003       1.53538304       2.36014906       0.00001942      -0.00000616       0.00001786
H        1.24382532       1.07915313       6.48210624       0.00003432      -0.00002352      -0.00002058
H        2.10128424      -0.05593174       5.81680396      -0.00004175       0.00003382       0.00002418
H        3.16380229       1.54295310       7.21834351      -0.00003395      -0.00001282      -0.00000215
H        0.14270742       3.00673864       6.42973105       0.00002061       0.00002221       0.00000857
H       -0.71769123       1.77782979       5.78129767      -0.00000438      -0.00003673       0.00002038
H        4.59665036       1.78703187       7.83688402       0.00001299       0.00000652       0.00001951
H        2.17945964       6.90112425       8.16332976      -0.00001614       0.00000341       0.00000214
H        1.60446068       7.19287655       3.59413304      -0.00002531       0.00001524       0.00002042
H        2.80555875       6.20625921       3.81728121       0.00003292       0.00000358       0.00000871
H        1.58763960       6.25278842       9.52501208       0.00000059      -0.00000373       0.00001303
H        3.50247477       3.69941454       6.77131864      -0.00001012       0.00000658       0.00001672
H        1.50077448       4.63239832       6.94445169      -0.00000645      -0.00000964       0.00000194
H        0.96192288       3.96732401       8.24723210      -0.00001051       0.00000771      -0.00001095
H        3.78376168       5.15151393       6.10386943      -0.00002683       0.00000576       0.00000190
H        5.45685748       2.53698272       4.95521546       0.00003782      -0.00000232      -0.00001697
H        6.31431720       3.67206418       4.28991392      -0.00002700      -0.00001765       0.00001640
H        7.37683432       2.07318138       5.69145508      -0.00000975       0.00000558      -0.00001518
H        4.35574505       0.60939244       4.90284094      -0.00002303       0.00000695      -0.00000490
H        3.49534408       1.83830805       4.25440664      -0.00000769      -0.00001350       0.00003310
H        8.80968510       1.82910189       6.30999580       0.00000177      -0.00000659      -0.00000116
H        6.39249487       3.94727508       6.63643925      -0.00002943       0.00000971       0.00001047
H        5.81749419       3.65552037       2.06724420      -0.00001221       0.00002674       0.00000607
H        7.01859576       4.64214073       2.29039173      -0.00000160      -0.00000934      -0.00000535
H        5.80067347       4.59561284       7.99812316      -0.00000049      -0.00000432      -0.00000188
H        7.71550753       7.14898620       5.24443025      -0.00000209      -0.00001169      -0.00000358
H        5.71380770       6.21600307       5.41756077       0.00000044       0.00000536       0.00000829
H        5.17495633       6.88107819       6.72034195      -0.00000542      -0.00001987      -0.00001095
H        7.99679546       5.69688594       4.57697887      -0.00002371       0.00000428       0.00000232
H        7.14333658       6.15311724       0.45502172      -0.00001533      -0.00001949       0.00001721
H        6.28588349       7.28819909       1.12032340       0.00000212      -0.00001216       0.00000259
H        5.22336674       5.68931533      -0.28121319      -0.00002676       0.00000685      -0.00000497
H        8.24445273       4.22552802       0.50739682       0.00001025      -0.00000505       0.00001318
H        9.10485654       5.45443817       1.15583206      -0.00000019       0.00001000      -0.00001730
H        3.79051102       5.44523392      -0.89975329       0.00002844       0.00001017      -0.00000539
H        6.20770315       0.33114321      -1.22619856       0.00002054      -0.00000716      -0.00001023
H        6.78270288       0.03938858       3.34299558       0.00001342       0.00001707      -0.00000246
H        5.58160025       1.02600595       3.11984904       0.00000680      -0.00000369       0.00000084
H        6.79952288       0.97947947      -2.58788192       0.00000557      -0.00000524      -0.00001526
H        4.88469039       3.53285140       0.16580777       0.00000049       0.00000187       0.00001317
H        6.88638902       2.59986692      -0.00732223       0.00000596       0.00002330       0.00000448
H        7.42524274       3.26494245      -1.31010201      -0.00000206       0.00000195       0.00001252
H        4.60340565       2.08074967       0.83325783       0.00000539       0.00001610       0.00002049
O        2.17126517       4.06478153       1.78721989       0.00002615       0.00001894       0.00005135
O        3.98519220       5.81508177       2.61347631       0.00000103      -0.00001038      -0.00000983
O        0.45947889       5.85134182       0.77326019      -0.00000297       0.00001070       0.00002347
O        2.20206454       2.91635049       4.20431127       0.00001505      -0.00000915       0.00001659
O        1.74930945       2.90985917      -0.59356062       0.00001703      -0.00000482       0.00000788
O        3.52916703       0.79855044       1.05533424      -0.00001044      -0.00000808      -0.00000776
O        1.07143303       0.80727483       2.25189681       0.00000337      -0.00000612      -0.00001333
O        2.00285886       0.44864732       6.67679636       0.00003449       0.00001952       0.00002160
O        0.18894085       2.19894335       5.85054889      -0.00003217       0.00002568      -0.00000584
O        3.71465237       2.23521178       7.69075891      -0.00000111      -0.00003096      -0.00001419
O        1.97206339       6.53248579       4.25971073      -0.00000282      -0.00002384      -0.00003462
O        2.42482012       6.52599344       9.05758168      -0.00001940       0.00000144      -0.00000785
O        0.64496335       4.41468315       7.40868813      -0.00000464      -0.00000104      -0.00000647
O        3.10269417       4.42341118       6.21213113       0.00001194      -0.00002534      -0.00003382
O        6.21589448       3.16748399       5.14990555       0.00001273      -0.00000401       0.00001471
O        4.40197356       1.41718846       4.32365818      -0.00000780      -0.00000203      -0.00000411
O        7.92768810       1.38092113       6.16386431      -0.00001610       0.00003112       0.00002292
O        6.18509532       4.31591897       2.73281604       0.00001337      -0.00001006       0.00001173
O        6.63785338       4.32240838       7.53069070      -0.00001018      -0.00000651       0.00000049
O        4.85799724       6.43371561       5.88179952      -0.00000395       0.00001913      -0.00001989
O        7.31572962       6.42499062       4.68523862      -0.00000505       0.00001227      -0.00001765
O        6.38429836       6.78361610       0.26033290       0.00001948       0.00000785       0.00000248
O        8.19822624       5.03331989       1.08658531       0.00000278       0.00000924      -0.00001635
O        4.67251196       4.99705836      -0.75362742       0.00000663      -0.00000623      -0.00000113
O        6.41510179       0.69978702       2.67742418      -0.00001120      -0.00001723      -0.00000996
O        5.96234335       0.70627342      -2.12045076       0.00001717       0.00001362       0.00000843
O        7.74220034       2.81758581      -0.47155599       0.00000284      -0.00001482      -0.00000881
O        5.28446521       2.80886153       0.72500898       0.00001804      -0.00001314      -0.00003169
