6
Properties=species:S:1:pos:R:3:forces:R:3 #=T CELL(abcABC):=T 200.00000=T 90.00000=T Step:=T 67=T Bead:=T 0=T positionsangstrom=T cellatomic_unit=T energy=-28.575028325102746 pbc="F F F"
O        0.14449431      -0.96697536       0.26141434       0.01085653       0.01232053       0.01485111
H       -0.78983433      -0.87252626       0.02032346      -0.00708799      -0.00106515      -0.00498795
H        0.53168900      -1.44979265      -0.48489328       0.00005261      -0.00425055      -0.00784766
O        2.92620296       4.14764610       1.71149857       0.00038031       0.00653965      -0.00649501
H        3.22443853       4.03370885       2.62690369       0.00545877       0.00183509       0.01226070
H        2.48302393       3.31042587       1.50500684      -0.00966023      -0.01537958      -0.00778118
