6
Properties=species:S:1:pos:R:3:forces:R:3 #=T CELL(abcABC):=T 200.00000=T 90.00000=T Step:=T 67=T Bead:=T 0=T positionsangstrom=T cellatomic_unit=T energy=-28.731318842571365 pbc="F F F"
O        0.14487343      -0.96621548       0.26155959       0.09594948       0.15903864       0.07039707
H       -0.78955402      -0.87009020       0.02186881      -0.00571946       0.01469339      -0.00194114
H        0.53403388      -1.44823854      -0.48412714       0.01147466       0.00728772      -0.00854953
O        1.73128857       1.96233180       1.07519335      -0.08701797      -0.15445136      -0.05185575
H        2.02849108       1.84635451       1.99022475      -0.00023857      -0.00741880       0.00781867
H        1.28527874       1.12001808       0.86712862      -0.01444814      -0.01914959      -0.01586933
