6
Properties=species:S:1:pos:R:3:forces:R:3 #=T CELL(abcABC):=T 200.00000=T 90.00000=T Step:=T 67=T Bead:=T 0=T positionsangstrom=T cellatomic_unit=T energy=-28.62247208872734 pbc="F F F"
O        0.14465145      -0.96499015       0.25956062       0.04161936       0.07888855       0.01945287
H       -0.79050944      -0.87354083       0.02110446      -0.01352571      -0.01133068      -0.00229733
H        0.53181069      -1.45115145      -0.48441337      -0.00189684      -0.01644458      -0.00684200
O        2.12993990       2.69142958       1.28745725      -0.02679499      -0.04501425      -0.01886531
H        2.42743571       2.57599152       2.20263691       0.00784521       0.00487356       0.01504443
H        1.68628427       1.85253030       1.08163732      -0.00724703      -0.01097260      -0.00649266
