6
Properties=species:S:1:pos:R:3:forces:R:3 #=T CELL(abcABC):=T 200.00000=T 90.00000=T Step:=T 67=T Bead:=T 0=T positionsangstrom=T cellatomic_unit=T energy=-28.58252688084349 pbc="F F F"
O        0.14452293      -0.96671091       0.26118818       0.01686296       0.02436784       0.01683729
H       -0.78991297      -0.87261766       0.02044150      -0.00752578      -0.00232113      -0.00484415
H        0.53173663      -1.44993781      -0.48482279      -0.00046185      -0.00546086      -0.00766776
O        2.66067151       3.66201177       1.57012302      -0.00528919      -0.00411761      -0.00919326
H        2.95880115       3.54786373       2.48549170       0.00563084       0.00224118       0.01224600
H        2.21739455       2.82447157       1.36374187      -0.00921698      -0.01470941      -0.00737812
