6
Properties=species:S:1:pos:R:3:forces:R:3 #=T CELL(abcABC):=T 200.00000=T 90.00000=T Step:=T 67=T Bead:=T 0=T positionsangstrom=T cellatomic_unit=T energy=-28.690155429437556 pbc="F F F"
O        0.13554664      -1.03137695       0.31221467       0.21440536       0.38862253       0.11660381
H       -0.74343680      -0.73428980       0.01741454       0.02876159      -0.01415134      -0.02377173
H        0.59775769      -1.31899435      -0.49489289      -0.03723758       0.01445564       0.00153177
O        1.17495647       0.95213224       0.77026299      -0.20898608      -0.39335601      -0.09860845
H        1.52303844       0.96323034       1.67330604       0.00839322       0.00454349       0.01655589
H        0.65294799      -0.10135304       0.60536233      -0.00533651      -0.00011431      -0.01231130
