6
Properties=species:S:1:pos:R:3:forces:R:3 #=T CELL(abcABC):=T 200.00000=T 90.00000=T Step:=T 67=T Bead:=T 0=T positionsangstrom=T cellatomic_unit=T energy=-28.589125020180553 pbc="F F F"
O        0.14459084      -0.96628769       0.26088316       0.02202410       0.03598018       0.01710408
H       -0.79000965      -0.87290612       0.02054198      -0.00870515      -0.00485013      -0.00427194
H        0.53165444      -1.45023144      -0.48472700      -0.00119457      -0.00817486      -0.00725870
O        2.52800537       3.41939718       1.49946418      -0.00939787      -0.01206384      -0.01089769
H        2.82593176       3.30482054       2.41479063       0.00591215       0.00224718       0.01297870
H        2.08464074       2.58158528       1.29316547      -0.00863867      -0.01313853      -0.00765446
