6
Lattice="4.500081 0.0 0.0 0.0 4.83274 0.0 0.0 0.0 4.286044" Properties=species:S:1:pos:R:3:forces:R:3 #=T CELL(abcABC):=T 200.00000=T 90.00000=T Step:=T 67=T Bead:=T 0=T positionsangstrom=T cellatomic_unit=T energy=-28.639608027501087 stress="-4.425816885526692e-12 -2.1767338883036496e-12 3.0750078450949363e-12 -2.1767338883036496e-12 8.902305862367849e-12 3.2346170681538313e-12 3.0750078450949363e-12 3.2346170681538313e-12 -2.6319576674829694e-12" free_energy=-28.639608027501087 pbc="F F F"
O        1.89612846       1.36322962       1.78978254      -0.00001502       0.00000802       0.00000883
H        1.03522208       1.69404191       1.47933730       0.00001040      -0.00001902      -0.00000223
H        2.36258758       1.11548855       0.97246320       0.00002612       0.00000555      -0.00001124
O        3.15748502       3.77465570       2.34076357       0.00002315      -0.00001812      -0.00001843
H        3.51251302       3.80195500       3.24313561       0.00002336      -0.00001201      -0.00000250
H        2.73359983       2.88131023       2.25028588      -0.00006802       0.00003559       0.00002557
