3
Properties=species:S:1:pos:R:3:forces:R:3 energy=-14.17007129023412 pbc="F F F"
H       -0.00000000      -0.05987324      -0.35522254       0.00000000       0.00120677       0.00403188
O       -0.00000000       0.71817091       0.22907637      -0.00000000       0.00260509      -0.00665532
H        0.00000000       0.34170233       1.12614617       0.00000000      -0.00381186       0.00262344
