36
Lattice="7.678093 0.0 0.0 3.839046 6.649423 0.0 0.0 0.0 7.234567" Properties=species:S:1:pos:R:3:forces:R:3 energy=-179.58575899897565 pbc="T T T"
H        1.28890484       2.23254335       1.44568129      -0.00000000      -0.00000000      -0.00000001
H        5.10003427      -0.00004897       1.44568131       0.00000000      -0.00000000       0.00000000
H        5.12795119       4.41678167       1.44568129      -0.00000000      -0.00000000       0.00000000
H        6.41693901       6.64937407       5.06296483      -0.00000000       0.00000000      -0.00000000
H       10.22806845       4.41678177       5.06296477      -0.00000000      -0.00000001      -0.00000000
H        6.38902209       2.23254343       5.06296481       0.00000000       0.00000000      -0.00000000
H        4.16240041      -0.00004897       0.13658669       0.00000000      -0.00000000       0.00000000
H        1.75772176       3.04455812       0.13658668       0.00000000       0.00000000      -0.00000001
H        5.59676820       3.60476697       0.13658667      -0.00000000      -0.00000000       0.00000000
H        7.35457287       6.64937407       3.75387020      -0.00000000       0.00000000      -0.00000000
H        9.75925152       3.60476699       3.75387017      -0.00000000      -0.00000000      -0.00000000
H        5.92020508       3.04455813       3.75387018       0.00000000       0.00000000      -0.00000000
H        5.92059752       5.84278987       7.12678073       0.00000000       0.00000000       0.00000000
H        5.92059743       7.45595822       7.12678073       0.00000000       0.00000000      -0.00000000
H        9.77771673       5.24991815       7.12678073      -0.00000000      -0.00000000       0.00000000
H        7.33571523       2.20599117       7.12678073       0.00000000       0.00000000      -0.00000000
H        5.93867045       1.39940697       7.12678073       0.00000000       0.00000000       0.00000000
H        1.73925655       1.39940696       3.50949726      -0.00000000      -0.00000000      -0.00000001
H        9.43542176       7.45595823       3.50949722       0.00000000       0.00000000       0.00000000
H        9.43542186       5.84278988       3.50949721      -0.00000000       0.00000000       0.00000000
H        4.18125805       4.44333394       3.50949721       0.00000000      -0.00000000       0.00000000
H        5.57830283       5.24991813       3.50949723       0.00000000       0.00000000       0.00000000
H        0.34221171       2.20599109       3.50949725      -0.00000000      -0.00000000      -0.00000001
H       11.17476158       4.44333402       7.12678072      -0.00000000      -0.00000000       0.00000000
O        1.27859317       2.21468302       0.44280159       0.00000000       0.00000000      -0.00000001
O        5.12065762      -0.00004897       0.44280161       0.00000000      -0.00000000       0.00000001
O        5.11763951       4.43464201       0.44280159      -0.00000000      -0.00000000       0.00000000
O        6.39631566       6.64937408       4.06008513      -0.00000000       0.00000000      -0.00000000
O        6.39933377       2.21468309       4.06008511       0.00000000       0.00000000      -0.00000000
O        6.41004970       6.64937407       6.78266904      -0.00000000       0.00000000       0.00000000
O        6.39246674       2.22657711       6.78266903       0.00000000       0.00000000       0.00000000
O        1.28546019       2.22657704       3.16538554      -0.00000000      -0.00000000      -0.00000001
O        8.94596958       6.64937403       3.16538552      -0.00000000       0.00000000       0.00000000
O        5.12450654       4.42274799       3.16538552       0.00000000       0.00000000       0.00000000
O       10.23838012       4.43464209       4.06008507      -0.00000000      -0.00000000      -0.00000000
O       10.23151309       4.42274807       6.78266901      -0.00000000      -0.00000000       0.00000000
