36
Lattice="6.857911342097637 0.04653689004539613 -2.9043887192643676 -4.397969084552093 5.262221010174664 -2.9043895998852394 0.021563956103956394 0.04653572825752845 7.447548132331908" Properties=species:S:1:pos:R:3:forces:R:3 energy=-179.24762006168723 stress="1.1226705914123628e-06 4.2609541516760074e-07 -4.075918198930982e-07 4.2609541516760074e-07 -2.427118913706297e-07 7.186987498377783e-07 -4.075918198930982e-07 7.186987498377783e-07 2.907579530553664e-07" pbc="T T T"
H        6.33661770      10.14339192       8.41059271      -0.00001939       0.00002104       0.00002297
H        6.52935084      11.21801495       9.53036373      -0.00001219      -0.00003067      -0.00004783
H       12.42202899       7.44946256      11.61818511      -0.00001707       0.00000192      -0.00000579
H       12.74533272       7.36176427      13.18103591      -0.00000963      -0.00000589       0.00002439
H       10.32709770       6.22603406      15.16941115       0.00004057       0.00007055       0.00001322
H       11.62992780       7.06781954      15.36917682      -0.00007968      -0.00001107      -0.00003172
H       10.92542914       9.12726626       8.40159669      -0.00000429      -0.00000143      -0.00001342
H       12.25442669       9.31723085       7.53417624      -0.00000687       0.00001276       0.00002954
H       14.35669430       6.73801368       7.39437642       0.00000094       0.00007481      -0.00001610
H       14.46188920       8.27617454       7.13199749      -0.00001431      -0.00000811      -0.00003258
H        8.84961193       9.07010029      11.73167354       0.00002729      -0.00006391      -0.00004818
H        7.77145596      10.20685785      11.41535200      -0.00004637       0.00000458      -0.00002259
H       15.21218120       7.13594736      12.81256345       0.00004110       0.00003365       0.00002122
H       15.01945060       6.06133076      11.69279774       0.00000389      -0.00001589      -0.00000603
H        9.12677221       9.82988164       9.60497597       0.00000330      -0.00000829      -0.00003367
H        8.80346741       9.91757957       8.04212051       0.00001311       0.00000185       0.00001640
H       11.22169775      11.05330371       6.05374805       0.00003470       0.00000731      -0.00000889
H        9.91887777      10.21152647       5.85398252      -0.00001154      -0.00003194       0.00002196
H       10.62337152       8.15207677      12.82156073      -0.00001615      -0.00000354       0.00002940
H        9.29437211       7.96211188      13.68898329       0.00003285      -0.00000608      -0.00004255
H        7.19210491      10.54132417      13.82878248       0.00001000       0.00000761       0.00001819
H        7.08691114       9.00317283      14.09116107       0.00001384      -0.00006937       0.00005032
H       12.69918609       8.20924641       9.49148536       0.00001378       0.00000823       0.00004728
H       13.77734854       7.07248289       9.80780844      -0.00000516       0.00004105      -0.00000073
O        5.91089179      10.48237555       9.25887387      -0.00002716       0.00000288      -0.00000717
O       11.99877954       7.31456544      12.52156375       0.00003530       0.00001648      -0.00000392
O       11.31686525       6.12040062      15.32731269       0.00000581      -0.00001285      -0.00001894
O       11.82328333       8.71715326       8.20387642      -0.00003475       0.00000172      -0.00003140
O       14.21903271       7.42485625       6.66978539       0.00001782       0.00001165      -0.00003448
O        8.31702923       9.48996563      10.98769872       0.00000347       0.00001592       0.00003775
O       15.63791145       6.79696875      11.96428329      -0.00002386      -0.00001950       0.00003182
O        9.55001918       9.96477651       8.70159524      -0.00000710       0.00000012      -0.00000097
O       10.23193255      11.15894670       5.89584502       0.00003627      -0.00005491       0.00003723
O        9.72551750       8.56218962      13.01928383       0.00002961       0.00001933       0.00002444
O        7.32976861       9.85448728      14.55337729      -0.00003407      -0.00002068      -0.00002835
O       13.23177010       7.78937518      10.23545727       0.00000591       0.00001065       0.00000920
