6
Lattice="102.500081 0.0 0.0 0.0 102.83274 0.0 0.0 0.0 102.286044" Properties=species:S:1:pos:R:3:forces:R:3 #=T CELL(abcABC):=T 200.00000=T 90.00000=T Step:=T 67=T Bead:=T 0=T positionsangstrom=T cellatomic_unit=T energy=-937.9434292629991 stress="-1.0171727946362394e-10 -3.0976552511084734e-11 -5.174116475113505e-11 -3.0976552511084734e-11 7.397855982393222e-11 5.563798304299685e-11 -5.174116475113505e-11 5.563798304299685e-11 5.206246769129094e-11" free_energy=-937.9434292629991 pbc="F F F"
O       50.83817955      50.25849798      50.75718613      -0.00002022       0.00002025      -0.00000843
H       50.08421484      50.78376533      50.48228025      -0.00005501      -0.00005192      -0.00004747
H       51.39816284      50.21074357      49.97996525       0.00002912       0.00005179       0.00007028
O       52.11217476      52.69671800      51.31168887      -0.00005526       0.00001095      -0.00000180
H       52.51244427      52.87914815      52.15498739       0.00003896      -0.00002669      -0.00000732
H       51.75235973      51.80180798      51.38966021       0.00006241      -0.00000438      -0.00000526
