30
Lattice="6.258463 0.0 0.001092 0.008756 6.270002 -0.006567 0.0 0.0 5.814608" Properties=species:S:1:pos:R:3:forces:R:3 energy=-148.96954758614356 pbc="T T T"
H        1.52731519       2.27549151       1.99952458       0.00007492      -0.00002976       0.00001120
H        1.55588321       0.73021587       1.94920598       0.00000358      -0.00004459       0.00003065
H        1.60842925       4.21205145       3.56705342      -0.00001349      -0.00000333      -0.00001385
H        4.24945546       1.54500744       5.01372693       0.00000239      -0.00000394      -0.00003289
H        2.31247385       2.83758260       4.02215684       0.00005805      -0.00005564       0.00001943
H        2.35207765       6.52071260       4.01996302       0.00003045      -0.00007030       0.00002508
H        0.81503749       6.44084372       4.02662339       0.00001385      -0.00007100      -0.00006694
H        6.49862677       2.24486514       4.44338151      -0.00000706       0.00001285       0.00001576
H        2.85957040       1.53854660       5.83422082      -0.00008715       0.00003377      -0.00001551
H        6.55897603       1.51687138       5.82469291       0.00004765       0.00002224       0.00001904
H        3.40765507       4.73145534      -0.02508728       0.00000040      -0.00003302       0.00003038
H       -0.29175764       4.75313137      -0.01555844      -0.00004150      -0.00002698      -0.00001703
H        4.73990337       3.99450959       3.80960978      -0.00007126       0.00004528      -0.00001385
H        4.71133556       5.53978765       3.85992883      -0.00000174       0.00002420      -0.00003475
H        4.65879493       2.05794608       2.24208337      -0.00005173       0.00006260      -0.00001989
H        2.01775890       4.72499443       0.79541295       0.00005922       0.00000422      -0.00003800
H        3.95474445       3.43242601       1.78697722      -0.00004788      -0.00003041      -0.00001275
H        3.91513965      -0.25070955       1.78917092      -0.00000892       0.00006237      -0.00002396
H        5.45218291      -0.17084014       1.78251056      -0.00003310       0.00005671       0.00006764
H       -0.23140752       4.02513680       1.36575332       0.00000450      -0.00001383      -0.00001718
O        1.60200915       6.04054001       3.57469881       0.00004305      -0.00003776      -0.00002743
O        6.07327896       1.50909823       4.95713457       0.00001317       0.00002524       0.00004034
O        1.55514284       1.52043667       1.34988425       0.00001211      -0.00004504       0.00002944
O        1.53699238       3.22106735       3.53647911       0.00007714      -0.00001182       0.00001107
O        3.25887987       1.54757025       4.92784789      -0.00000487       0.00000566       0.00001537
O        4.71207685       4.74956550       4.45924932      -0.00001834       0.00004232      -0.00001666
O        4.73022325       3.04893192       2.27265410      -0.00003486       0.00004741       0.00001060
O        3.00833658       4.72243187       0.88128289       0.00003872      -0.00000588       0.00003654
O        0.19394021       4.76090331       0.85199963      -0.00001376      -0.00002338      -0.00003624
O        4.66520993       0.22945898       2.23443707      -0.00004353       0.00006181       0.00002438
