LAMMPS (2 Aug 2023)
  using 4 OpenMP thread(s) per MPI task
units metal
atom_style atomic
atom_modify map array sort 0 0
boundary p p p
box tilt large

The 'box' command has been removed and will be ignored

region cell prism    0 8.368112 0 8.156852 0 4.091404     0.0 0.0 0.0     units box
create_box 2 cell
Created triclinic box = (0 0 0) to (8.368112 8.156852 4.091404) with tilt (0 0 0)
  1 by 1 by 1 MPI processor grid
echo none
Created 36 atoms
  using lattice units in triclinic box = (0 0 0) to (8.368112 8.156852 4.091404) with tilt (0 0 0)
  create_atoms CPU = 0.000 seconds
Setting atom values ...
  1 settings made for type
Setting atom values ...
  1 settings made for type
Setting atom values ...
  1 settings made for type
Setting atom values ...
  1 settings made for type
Setting atom values ...
  1 settings made for type
Setting atom values ...
  1 settings made for type
Setting atom values ...
  1 settings made for type
Setting atom values ...
  1 settings made for type
Setting atom values ...
  1 settings made for type
Setting atom values ...
  1 settings made for type
Setting atom values ...
  1 settings made for type
Setting atom values ...
  1 settings made for type
Setting atom values ...
  1 settings made for type
Setting atom values ...
  1 settings made for type
Setting atom values ...
  1 settings made for type
Setting atom values ...
  1 settings made for type
Setting atom values ...
  1 settings made for type
Setting atom values ...
  1 settings made for type
Setting atom values ...
  1 settings made for type
Setting atom values ...
  1 settings made for type
Setting atom values ...
  1 settings made for type
Setting atom values ...
  1 settings made for type
Setting atom values ...
  1 settings made for type
Setting atom values ...
  1 settings made for type
Setting atom values ...
  1 settings made for type
Setting atom values ...
  1 settings made for type
Setting atom values ...
  1 settings made for type
Setting atom values ...
  1 settings made for type
Setting atom values ...
  1 settings made for type
Setting atom values ...
  1 settings made for type
Setting atom values ...
  1 settings made for type
Setting atom values ...
  1 settings made for type
Setting atom values ...
  1 settings made for type
Setting atom values ...
  1 settings made for type
Setting atom values ...
  1 settings made for type
Setting atom values ...
  1 settings made for type
#!/bin/bash
variable runnerDir       string "/ibiscostorage/VirtualMatterLab/train_008"
variable runnerCutoff    equal  8.466835984
pair_style hdnnp ${runnerCutoff} dir ${runnerDir} showew no showewsum 1 resetew yes maxew 200000 cflength 1.889726 cfenergy 0.036749
pair_style hdnnp 8.466835984 dir ${runnerDir} showew no showewsum 1 resetew yes maxew 200000 cflength 1.889726 cfenergy 0.036749
pair_style hdnnp 8.466835984 dir /ibiscostorage/VirtualMatterLab/train_008 showew no showewsum 1 resetew yes maxew 200000 cflength 1.889726 cfenergy 0.036749
pair_coeff * * H O
mass 2 15.998999995884348734875857189763
mass 1 1.007999999740697649741605346208
variable pxx equal pxx
variable pyy equal pyy
variable pzz equal pzz
variable pxy equal pxy
variable pxz equal pxz
variable pyz equal pyz
thermo_style custom pe pxx emol ecoul
variable fx atom fx
variable fy atom fy
variable fz atom fz
variable pe equal pe
neigh_modify delay 0 every 1 check yes
echo none
run 0
WARNING: No fixes with time integration, atoms won't move (src/verlet.cpp:60)

*******************************************************************************

WELCOME TO n²p², A SOFTWARE PACKAGE FOR NEURAL NETWORK POTENTIALS!
------------------------------------------------------------------

n²p² version  (from git): b07b733
             (version.h): v2.2.0
------------------------------------------------------------
Git branch              : HEAD
Git revision            : b07b73307b460989c5ad299e0295d713d22a0628
Compile date/time       : Jan  4 2024 11:01:03
------------------------------------------------------------

Features/Flags:
------------------------------------------------------------
Symmetry function groups     : enabled
Symmetry function cache      : enabled
Timing function available    : available
Asymmetric polynomial SFs    : available
SF low neighbor number check : enabled
SF derivative memory layout  : reduced
MPI explicitly disabled      : yes
------------------------------------------------------------

Please cite the following papers when publishing results obtained with n²p²:
-------------------------------------------------------------------------------
 * General citation for n²p² and the LAMMPS interface:

 Singraber, A.; Behler, J.; Dellago, C.
 Library-Based LAMMPS Implementation of High-Dimensional
 Neural Network Potentials.
 J. Chem. Theory Comput. 2019 15 (3), 1827–1840.
 https://doi.org/10.1021/acs.jctc.8b00770
-------------------------------------------------------------------------------
 * Additionally, if you use the NNP training features of n²p²:

 Singraber, A.; Morawietz, T.; Behler, J.; Dellago, C.
 Parallel Multistream Training of High-Dimensional Neural
 Network Potentials.
 J. Chem. Theory Comput. 2019, 15 (5), 3075–3092.
 https://doi.org/10.1021/acs.jctc.8b01092
-------------------------------------------------------------------------------
 * Additionally, if polynomial symmetry functions are used:

 Bircher, M. P.; Singraber, A.; Dellago, C.
 Improved Description of Atomic Environments Using Low-Cost
 Polynomial Functions with Compact Support.
 arXiv:2010.14414 [cond-mat, physics:physics] 2020.
 https://arxiv.org/abs/2010.14414
*******************************************************************************

*** SETUP: SETTINGS FILE ******************************************************

Settings file name: /ibiscostorage/VirtualMatterLab/train_008/input.nn
Read 212 lines.
Found 144 lines with keywords.
This settings file defines a short-range only NNP.
*******************************************************************************

*** SETUP: NORMALIZATION ******************************************************

Data set normalization is not used.
*******************************************************************************

*** SETUP: ELEMENT MAP ********************************************************

Number of element strings found: 2
Element  0:  H (  1)
Element  1:  O (  8)
*******************************************************************************

*** SETUP: ELEMENTS ***********************************************************

Number of elements is consistent: 2
Atomic energy offsets per element:
Element  0:  -4.58907710E-01
Element  1:  -7.49451852E+01
Energy offsets are automatically subtracted from reference energies.
*******************************************************************************

*** SETUP: CUTOFF FUNCTIONS ***************************************************

Parameter alpha for inner cutoff: 0.000000
Inner cutoff = Symmetry function cutoff * alpha
Equal cutoff function type for all symmetry functions:
CutoffFunction::CT_TANHU (2)
f(r) = tanh^3(1 - r/rc)
*******************************************************************************

*** SETUP: SYMMETRY FUNCTIONS *************************************************

Abbreviations:
--------------
ind .... Symmetry function index.
ec ..... Central atom element.
tp ..... Symmetry function type.
sbtp ... Symmetry function subtype (e.g. cutoff type).
e1 ..... Neighbor 1 element.
e2 ..... Neighbor 2 element.
eta .... Gaussian width eta.
rs/rl... Shift distance of Gaussian or left cutoff radius for polynomial.
angl.... Left cutoff angle for polynomial.
angr.... Right cutoff angle for polynomial.
la ..... Angle prefactor lambda.
zeta ... Angle term exponent zeta.
rc ..... Cutoff radius / right cutoff radius for polynomial.
a ...... Free parameter alpha (e.g. cutoff alpha).
ln ..... Line number in settings file.

Short range atomic symmetry functions element  H :
-------------------------------------------------------------------------------------------------
 ind ec tp sbtp e1 e2       eta      rs/rl         rc   angl   angr la zeta    a    ln
-------------------------------------------------------------------------------------------------
   1  H  2  ct2  O    1.000E-03  0.000E+00  4.000E+00                       0.00    92
   2  H  2  ct2  O    1.000E-02  0.000E+00  4.000E+00                       0.00    93
   3  H  2  ct2  O    3.000E-02  0.000E+00  4.000E+00                       0.00    94
   4  H  2  ct2  O    6.000E-02  0.000E+00  4.000E+00                       0.00    95
   5  H  2  ct2  O    1.500E-01 -1.500E+00  4.000E+00                       0.00    97
   6  H  2  ct2  O    1.500E-01  0.000E+00  4.000E+00                       0.00    96
   7  H  2  ct2  O    3.000E-01 -1.500E+00  4.000E+00                       0.00    98
   8  H  2  ct2  O    6.000E-01 -1.500E+00  4.000E+00                       0.00    99
   9  H  2  ct2  H    1.000E-03  0.000E+00  6.000E+00                       0.00   101
  10  H  2  ct2  H    1.000E-02  0.000E+00  6.000E+00                       0.00   102
  11  H  2  ct2  H    3.000E-02  0.000E+00  6.000E+00                       0.00   103
  12  H  2  ct2  H    6.000E-02  0.000E+00  6.000E+00                       0.00   104
  13  H  2  ct2  H    1.500E-01 -1.500E+00  6.000E+00                       0.00   106
  14  H  2  ct2  H    1.500E-01  0.000E+00  6.000E+00                       0.00   105
  15  H  2  ct2  H    3.000E-01 -1.500E+00  6.000E+00                       0.00   107
  16  H  2  ct2  H    1.000E-03  0.000E+00  1.200E+01                       0.00   109
  17  H  2  ct2  O    1.000E-03  0.000E+00  1.200E+01                       0.00   110
  18  H  2  ct2  H    1.000E-02  0.000E+00  1.200E+01                       0.00   111
  19  H  2  ct2  O    1.000E-02  0.000E+00  1.200E+01                       0.00   112
  20  H  2  ct2  H    3.000E-02  0.000E+00  1.200E+01                       0.00   113
  21  H  2  ct2  O    3.000E-02  0.000E+00  1.200E+01                       0.00   114
  22  H  2  ct2  H    6.000E-02  0.000E+00  1.200E+01                       0.00   115
  23  H  2  ct2  O    6.000E-02  0.000E+00  1.200E+01                       0.00   116
  24  H  2  ct2  H    1.500E-01 -1.500E+00  1.200E+01                       0.00   119
  25  H  2  ct2  O    1.500E-01 -1.500E+00  1.200E+01                       0.00   120
  26  H  2  ct2  H    1.500E-01  0.000E+00  1.200E+01                       0.00   117
  27  H  2  ct2  O    1.500E-01  0.000E+00  1.200E+01                       0.00   118
  28  H  2  ct2  H    3.000E-01 -1.500E+00  1.200E+01                       0.00   121
  29  H  2  ct2  O    3.000E-01 -1.500E+00  1.200E+01                       0.00   122
  30  H  2  ct2  O    6.000E-01 -1.500E+00  1.200E+01                       0.00   123
  31  H  3  ct2  H  O 1.000E-02  0.000E+00  6.000E+00               -1  1.0 0.00   157
  32  H  3  ct2  H  O 1.000E-02  0.000E+00  6.000E+00                1  1.0 0.00   158
  33  H  3  ct2  H  O 1.000E-02  0.000E+00  6.000E+00               -1  2.0 0.00   159
  34  H  3  ct2  H  O 1.000E-02  0.000E+00  6.000E+00                1  2.0 0.00   160
  35  H  3  ct2  H  O 1.000E-02  0.000E+00  6.000E+00                1  3.0 0.00   161
  36  H  3  ct2  H  O 1.000E-02  0.000E+00  8.000E+00               -1  1.0 0.00   163
  37  H  3  ct2  H  O 1.000E-02  0.000E+00  8.000E+00                1  1.0 0.00   164
  38  H  3  ct2  H  O 1.000E-02  0.000E+00  8.000E+00               -1  2.0 0.00   165
  39  H  3  ct2  H  O 1.000E-02  0.000E+00  8.000E+00                1  2.0 0.00   166
  40  H  3  ct2  H  O 1.000E-02  0.000E+00  8.000E+00                1  3.0 0.00   167
  41  H  3  ct2  O  O 1.000E-03  0.000E+00  1.200E+01               -1  4.0 0.00   169
  42  H  3  ct2  O  O 1.000E-03  0.000E+00  1.200E+01                1  4.0 0.00   170
  43  H  3  ct2  H  O 1.000E-02  0.000E+00  1.200E+01               -1  4.0 0.00   172
  44  H  3  ct2  H  O 1.000E-02  0.000E+00  1.200E+01                1  4.0 0.00   173
  45  H  3  ct2  H  O 3.000E-02  0.000E+00  1.200E+01               -1  1.0 0.00   175
  46  H  3  ct2  O  O 3.000E-02  0.000E+00  1.200E+01               -1  1.0 0.00   176
  47  H  3  ct2  H  O 3.000E-02  0.000E+00  1.200E+01                1  1.0 0.00   177
  48  H  3  ct2  O  O 3.000E-02  0.000E+00  1.200E+01                1  1.0 0.00   178
  49  H  3  ct2  H  O 7.000E-02  0.000E+00  1.200E+01               -1  1.0 0.00   180
  50  H  3  ct2  H  O 7.000E-02  0.000E+00  1.200E+01                1  1.0 0.00   181
  51  H  3  ct2  H  O 2.000E-01  0.000E+00  1.200E+01                1  1.0 0.00   182
-------------------------------------------------------------------------------------------------
Short range atomic symmetry functions element  O :
-------------------------------------------------------------------------------------------------
 ind ec tp sbtp e1 e2       eta      rs/rl         rc   angl   angr la zeta    a    ln
-------------------------------------------------------------------------------------------------
   1  O  2  ct2  H    1.000E-03  0.000E+00  4.000E+00                       0.00   126
   2  O  2  ct2  H    1.000E-02  0.000E+00  4.000E+00                       0.00   127
   3  O  2  ct2  H    3.000E-02  0.000E+00  4.000E+00                       0.00   128
   4  O  2  ct2  H    6.000E-02  0.000E+00  4.000E+00                       0.00   129
   5  O  2  ct2  H    1.500E-01 -1.500E+00  4.000E+00                       0.00   131
   6  O  2  ct2  H    1.500E-01  0.000E+00  4.000E+00                       0.00   130
   7  O  2  ct2  H    3.000E-01 -1.500E+00  4.000E+00                       0.00   132
   8  O  2  ct2  H    6.000E-01 -1.500E+00  4.000E+00                       0.00   133
   9  O  2  ct2  H    1.000E-03  0.000E+00  1.200E+01                       0.00   135
  10  O  2  ct2  O    1.000E-03  0.000E+00  1.200E+01                       0.00   136
  11  O  2  ct2  H    1.000E-02  0.000E+00  1.200E+01                       0.00   137
  12  O  2  ct2  O    1.000E-02  0.000E+00  1.200E+01                       0.00   138
  13  O  2  ct2  H    3.000E-02 -1.500E+00  1.200E+01                       0.00   140
  14  O  2  ct2  O    3.000E-02  0.000E+00  1.200E+01                       0.00   141
  15  O  2  ct2  O    6.000E-02 -1.500E+00  1.200E+01                       0.00   142
  16  O  2  ct2  H    6.000E-02  0.000E+00  1.200E+01                       0.00   143
  17  O  2  ct2  O    6.000E-02  0.000E+00  1.200E+01                       0.00   144
  18  O  2  ct2  O    9.000E-02  0.000E+00  1.200E+01                       0.00   145
  19  O  2  ct2  H    1.500E-01  0.000E+00  1.200E+01                       0.00   147
  20  O  2  ct2  O    1.500E-01  0.000E+00  1.200E+01                       0.00   146
  21  O  2  ct2  H    3.000E-01  0.000E+00  1.200E+01                       0.00   148
  22  O  2  ct2  H    6.000E-01  0.000E+00  1.200E+01                       0.00   149
  23  O  3  ct2  H  H 1.000E-02  0.000E+00  6.000E+00               -1  1.0 0.00   185
  24  O  3  ct2  H  H 1.000E-02  0.000E+00  6.000E+00                1  1.0 0.00   186
  25  O  3  ct2  H  H 1.000E-02  0.000E+00  6.000E+00               -1  2.0 0.00   187
  26  O  3  ct2  H  H 1.000E-02  0.000E+00  6.000E+00                1  2.0 0.00   188
  27  O  3  ct2  H  H 1.000E-02  0.000E+00  6.000E+00               -1  3.0 0.00   189
  28  O  3  ct2  H  H 1.000E-02  0.000E+00  8.000E+00               -1  1.0 0.00   191
  29  O  3  ct2  H  H 1.000E-02  0.000E+00  8.000E+00                1  1.0 0.00   192
  30  O  3  ct2  H  H 1.000E-02  0.000E+00  8.000E+00               -1  2.0 0.00   193
  31  O  3  ct2  H  H 1.000E-02  0.000E+00  8.000E+00                1  2.0 0.00   194
  32  O  3  ct2  H  H 1.000E-02  0.000E+00  8.000E+00               -1  3.0 0.00   195
  33  O  3  ct2  H  O 1.000E-03  0.000E+00  1.200E+01               -1  4.0 0.00   197
  34  O  3  ct2  O  O 1.000E-03  0.000E+00  1.200E+01               -1  4.0 0.00   198
  35  O  3  ct2  H  O 1.000E-03  0.000E+00  1.200E+01                1  4.0 0.00   199
  36  O  3  ct2  O  O 1.000E-03  0.000E+00  1.200E+01                1  4.0 0.00   200
  37  O  3  ct2  H  H 1.000E-02  0.000E+00  1.200E+01               -1  4.0 0.00   202
  38  O  3  ct2  H  H 1.000E-02  0.000E+00  1.200E+01                1  4.0 0.00   203
  39  O  3  ct2  H  H 3.000E-02  0.000E+00  1.200E+01               -1  1.0 0.00   204
  40  O  3  ct2  H  O 3.000E-02  0.000E+00  1.200E+01               -1  1.0 0.00   205
  41  O  3  ct2  O  O 3.000E-02  0.000E+00  1.200E+01               -1  1.0 0.00   206
  42  O  3  ct2  H  H 3.000E-02  0.000E+00  1.200E+01                1  1.0 0.00   207
  43  O  3  ct2  H  O 3.000E-02  0.000E+00  1.200E+01                1  1.0 0.00   208
  44  O  3  ct2  O  O 3.000E-02  0.000E+00  1.200E+01                1  1.0 0.00   209
  45  O  3  ct2  H  H 7.000E-02  0.000E+00  1.200E+01               -1  1.0 0.00   210
  46  O  3  ct2  H  H 7.000E-02  0.000E+00  1.200E+01                1  1.0 0.00   211
-------------------------------------------------------------------------------------------------
Minimum cutoff radius for element  H: 4.000000
Minimum cutoff radius for element  O: 4.000000
Maximum cutoff radius (global)      : 12.000000
*******************************************************************************

*** SETUP: SYMMETRY FUNCTION MEMORY *******************************************

Symmetry function derivatives memory table for element  H :
-------------------------------------------------------------------------------
Relevant symmetry functions for neighbors with element:
-  H:   31 of   51 ( 60.8 %)
-  O:   37 of   51 ( 72.5 %)
-------------------------------------------------------------------------------
Symmetry function derivatives memory table for element  O :
-------------------------------------------------------------------------------
Relevant symmetry functions for neighbors with element:
-  H:   35 of   46 ( 76.1 %)
-  O:   15 of   46 ( 32.6 %)
-------------------------------------------------------------------------------
*******************************************************************************

*** SETUP: SYMMETRY FUNCTION CACHE ********************************************

Element  H: in total 14 caches, used 9.71 times on average.
Element  O: in total 10 caches, used 10.00 times on average.
*******************************************************************************

*** SETUP: SYMMETRY FUNCTION GROUPS *******************************************

Abbreviations:
--------------
ind .... Symmetry function index.
ec ..... Central atom element.
tp ..... Symmetry function type.
sbtp ... Symmetry function subtype (e.g. cutoff type).
e1 ..... Neighbor 1 element.
e2 ..... Neighbor 2 element.
eta .... Gaussian width eta.
rs/rl... Shift distance of Gaussian or left cutoff radius for polynomial.
angl.... Left cutoff angle for polynomial.
angr.... Right cutoff angle for polynomial.
la ..... Angle prefactor lambda.
zeta ... Angle term exponent zeta.
rc ..... Cutoff radius / right cutoff radius for polynomial.
a ...... Free parameter alpha (e.g. cutoff alpha).
ln ..... Line number in settings file.
mi ..... Member index.
sfi .... Symmetry function index.
e ...... Recalculate exponential term.

Short range atomic symmetry function groups element  H :
----------------------------------------------------------------------------------------------------------
 ind ec tp sbtp e1 e2       eta      rs/rl         rc   angl   angr la zeta    a    ln   mi  sfi e
----------------------------------------------------------------------------------------------------------
   1  H  2  ct2  O            *          *  4.000E+00                       0.00     *    *    *  
   -  -  -    -  -    1.000E-03  0.000E+00          -                          -    92    1    1  
   -  -  -    -  -    1.000E-02  0.000E+00          -                          -    93    2    2  
   -  -  -    -  -    3.000E-02  0.000E+00          -                          -    94    3    3  
   -  -  -    -  -    6.000E-02  0.000E+00          -                          -    95    4    4  
   -  -  -    -  -    1.500E-01 -1.500E+00          -                          -    97    5    5  
   -  -  -    -  -    1.500E-01  0.000E+00          -                          -    96    6    6  
   -  -  -    -  -    3.000E-01 -1.500E+00          -                          -    98    7    7  
   -  -  -    -  -    6.000E-01 -1.500E+00          -                          -    99    8    8  
   2  H  2  ct2  H            *          *  6.000E+00                       0.00     *    *    *  
   -  -  -    -  -    1.000E-03  0.000E+00          -                          -   101    1    9  
   -  -  -    -  -    1.000E-02  0.000E+00          -                          -   102    2   10  
   -  -  -    -  -    3.000E-02  0.000E+00          -                          -   103    3   11  
   -  -  -    -  -    6.000E-02  0.000E+00          -                          -   104    4   12  
   -  -  -    -  -    1.500E-01 -1.500E+00          -                          -   106    5   13  
   -  -  -    -  -    1.500E-01  0.000E+00          -                          -   105    6   14  
   -  -  -    -  -    3.000E-01 -1.500E+00          -                          -   107    7   15  
   3  H  2  ct2  H            *          *  1.200E+01                       0.00     *    *    *  
   -  -  -    -  -    1.000E-03  0.000E+00          -                          -   109    1   16  
   -  -  -    -  -    1.000E-02  0.000E+00          -                          -   111    2   18  
   -  -  -    -  -    3.000E-02  0.000E+00          -                          -   113    3   20  
   -  -  -    -  -    6.000E-02  0.000E+00          -                          -   115    4   22  
   -  -  -    -  -    1.500E-01 -1.500E+00          -                          -   119    5   24  
   -  -  -    -  -    1.500E-01  0.000E+00          -                          -   117    6   26  
   -  -  -    -  -    3.000E-01 -1.500E+00          -                          -   121    7   28  
   4  H  2  ct2  O            *          *  1.200E+01                       0.00     *    *    *  
   -  -  -    -  -    1.000E-03  0.000E+00          -                          -   110    1   17  
   -  -  -    -  -    1.000E-02  0.000E+00          -                          -   112    2   19  
   -  -  -    -  -    3.000E-02  0.000E+00          -                          -   114    3   21  
   -  -  -    -  -    6.000E-02  0.000E+00          -                          -   116    4   23  
   -  -  -    -  -    1.500E-01 -1.500E+00          -                          -   120    5   25  
   -  -  -    -  -    1.500E-01  0.000E+00          -                          -   118    6   27  
   -  -  -    -  -    3.000E-01 -1.500E+00          -                          -   122    7   29  
   -  -  -    -  -    6.000E-01 -1.500E+00          -                          -   123    8   30  
   5  H  3  ct2  H  O         *          *  6.000E+00                *    * 0.00     *    *    * *
   -  -  -    -  -  - 1.000E-02  0.000E+00          -               -1  1.0    -   157    1   31 1
   -  -  -    -  -  - 1.000E-02  0.000E+00          -                1  1.0    -   158    2   32 0
   -  -  -    -  -  - 1.000E-02  0.000E+00          -               -1  2.0    -   159    3   33 0
   -  -  -    -  -  - 1.000E-02  0.000E+00          -                1  2.0    -   160    4   34 0
   -  -  -    -  -  - 1.000E-02  0.000E+00          -                1  3.0    -   161    5   35 0
   6  H  3  ct2  H  O         *          *  8.000E+00                *    * 0.00     *    *    * *
   -  -  -    -  -  - 1.000E-02  0.000E+00          -               -1  1.0    -   163    1   36 1
   -  -  -    -  -  - 1.000E-02  0.000E+00          -                1  1.0    -   164    2   37 0
   -  -  -    -  -  - 1.000E-02  0.000E+00          -               -1  2.0    -   165    3   38 0
   -  -  -    -  -  - 1.000E-02  0.000E+00          -                1  2.0    -   166    4   39 0
   -  -  -    -  -  - 1.000E-02  0.000E+00          -                1  3.0    -   167    5   40 0
   7  H  3  ct2  H  O         *          *  1.200E+01                *    * 0.00     *    *    * *
   -  -  -    -  -  - 1.000E-02  0.000E+00          -               -1  4.0    -   172    1   43 1
   -  -  -    -  -  - 1.000E-02  0.000E+00          -                1  4.0    -   173    2   44 0
   -  -  -    -  -  - 3.000E-02  0.000E+00          -               -1  1.0    -   175    3   45 1
   -  -  -    -  -  - 3.000E-02  0.000E+00          -                1  1.0    -   177    4   47 0
   -  -  -    -  -  - 7.000E-02  0.000E+00          -               -1  1.0    -   180    5   49 1
   -  -  -    -  -  - 7.000E-02  0.000E+00          -                1  1.0    -   181    6   50 0
   -  -  -    -  -  - 2.000E-01  0.000E+00          -                1  1.0    -   182    7   51 1
   8  H  3  ct2  O  O         *          *  1.200E+01                *    * 0.00     *    *    * *
   -  -  -    -  -  - 1.000E-03  0.000E+00          -               -1  4.0    -   169    1   41 1
   -  -  -    -  -  - 1.000E-03  0.000E+00          -                1  4.0    -   170    2   42 0
   -  -  -    -  -  - 3.000E-02  0.000E+00          -               -1  1.0    -   176    3   46 1
   -  -  -    -  -  - 3.000E-02  0.000E+00          -                1  1.0    -   178    4   48 0
----------------------------------------------------------------------------------------------------------
Short range atomic symmetry function groups element  O :
----------------------------------------------------------------------------------------------------------
 ind ec tp sbtp e1 e2       eta      rs/rl         rc   angl   angr la zeta    a    ln   mi  sfi e
----------------------------------------------------------------------------------------------------------
   1  O  2  ct2  H            *          *  4.000E+00                       0.00     *    *    *  
   -  -  -    -  -    1.000E-03  0.000E+00          -                          -   126    1    1  
   -  -  -    -  -    1.000E-02  0.000E+00          -                          -   127    2    2  
   -  -  -    -  -    3.000E-02  0.000E+00          -                          -   128    3    3  
   -  -  -    -  -    6.000E-02  0.000E+00          -                          -   129    4    4  
   -  -  -    -  -    1.500E-01 -1.500E+00          -                          -   131    5    5  
   -  -  -    -  -    1.500E-01  0.000E+00          -                          -   130    6    6  
   -  -  -    -  -    3.000E-01 -1.500E+00          -                          -   132    7    7  
   -  -  -    -  -    6.000E-01 -1.500E+00          -                          -   133    8    8  
   2  O  2  ct2  H            *          *  1.200E+01                       0.00     *    *    *  
   -  -  -    -  -    1.000E-03  0.000E+00          -                          -   135    1    9  
   -  -  -    -  -    1.000E-02  0.000E+00          -                          -   137    2   11  
   -  -  -    -  -    3.000E-02 -1.500E+00          -                          -   140    3   13  
   -  -  -    -  -    6.000E-02  0.000E+00          -                          -   143    4   16  
   -  -  -    -  -    1.500E-01  0.000E+00          -                          -   147    5   19  
   -  -  -    -  -    3.000E-01  0.000E+00          -                          -   148    6   21  
   -  -  -    -  -    6.000E-01  0.000E+00          -                          -   149    7   22  
   3  O  2  ct2  O            *          *  1.200E+01                       0.00     *    *    *  
   -  -  -    -  -    1.000E-03  0.000E+00          -                          -   136    1   10  
   -  -  -    -  -    1.000E-02  0.000E+00          -                          -   138    2   12  
   -  -  -    -  -    3.000E-02  0.000E+00          -                          -   141    3   14  
   -  -  -    -  -    6.000E-02 -1.500E+00          -                          -   142    4   15  
   -  -  -    -  -    6.000E-02  0.000E+00          -                          -   144    5   17  
   -  -  -    -  -    9.000E-02  0.000E+00          -                          -   145    6   18  
   -  -  -    -  -    1.500E-01  0.000E+00          -                          -   146    7   20  
   4  O  3  ct2  H  H         *          *  6.000E+00                *    * 0.00     *    *    * *
   -  -  -    -  -  - 1.000E-02  0.000E+00          -               -1  1.0    -   185    1   23 1
   -  -  -    -  -  - 1.000E-02  0.000E+00          -                1  1.0    -   186    2   24 0
   -  -  -    -  -  - 1.000E-02  0.000E+00          -               -1  2.0    -   187    3   25 0
   -  -  -    -  -  - 1.000E-02  0.000E+00          -                1  2.0    -   188    4   26 0
   -  -  -    -  -  - 1.000E-02  0.000E+00          -               -1  3.0    -   189    5   27 0
   5  O  3  ct2  H  H         *          *  8.000E+00                *    * 0.00     *    *    * *
   -  -  -    -  -  - 1.000E-02  0.000E+00          -               -1  1.0    -   191    1   28 1
   -  -  -    -  -  - 1.000E-02  0.000E+00          -                1  1.0    -   192    2   29 0
   -  -  -    -  -  - 1.000E-02  0.000E+00          -               -1  2.0    -   193    3   30 0
   -  -  -    -  -  - 1.000E-02  0.000E+00          -                1  2.0    -   194    4   31 0
   -  -  -    -  -  - 1.000E-02  0.000E+00          -               -1  3.0    -   195    5   32 0
   6  O  3  ct2  H  H         *          *  1.200E+01                *    * 0.00     *    *    * *
   -  -  -    -  -  - 1.000E-02  0.000E+00          -               -1  4.0    -   202    1   37 1
   -  -  -    -  -  - 1.000E-02  0.000E+00          -                1  4.0    -   203    2   38 0
   -  -  -    -  -  - 3.000E-02  0.000E+00          -               -1  1.0    -   204    3   39 1
   -  -  -    -  -  - 3.000E-02  0.000E+00          -                1  1.0    -   207    4   42 0
   -  -  -    -  -  - 7.000E-02  0.000E+00          -               -1  1.0    -   210    5   45 1
   -  -  -    -  -  - 7.000E-02  0.000E+00          -                1  1.0    -   211    6   46 0
   7  O  3  ct2  H  O         *          *  1.200E+01                *    * 0.00     *    *    * *
   -  -  -    -  -  - 1.000E-03  0.000E+00          -               -1  4.0    -   197    1   33 1
   -  -  -    -  -  - 1.000E-03  0.000E+00          -                1  4.0    -   199    2   35 0
   -  -  -    -  -  - 3.000E-02  0.000E+00          -               -1  1.0    -   205    3   40 1
   -  -  -    -  -  - 3.000E-02  0.000E+00          -                1  1.0    -   208    4   43 0
   8  O  3  ct2  O  O         *          *  1.200E+01                *    * 0.00     *    *    * *
   -  -  -    -  -  - 1.000E-03  0.000E+00          -               -1  4.0    -   198    1   34 1
   -  -  -    -  -  - 1.000E-03  0.000E+00          -                1  4.0    -   200    2   36 0
   -  -  -    -  -  - 3.000E-02  0.000E+00          -               -1  1.0    -   206    3   41 1
   -  -  -    -  -  - 3.000E-02  0.000E+00          -                1  1.0    -   209    4   44 0
----------------------------------------------------------------------------------------------------------
*******************************************************************************

*** SETUP: NEURAL NETWORKS ****************************************************

Normalize neurons (all elements): 0
-------------------------------------------------------------------------------
Atomic short range NN for element  H :
Number of weights    :   1440
Number of biases     :     41
Number of connections:   1481
Architecture       51   20   20    1
-------------------------------------------------------------------------------
   1   G   t   t   l
   2   G   t   t    
   3   G   t   t    
   4   G   t   t    
   5   G   t   t    
   6   G   t   t    
   7   G   t   t    
   8   G   t   t    
   9   G   t   t    
  10   G   t   t    
  11   G   t   t    
  12   G   t   t    
  13   G   t   t    
  14   G   t   t    
  15   G   t   t    
  16   G   t   t    
  17   G   t   t    
  18   G   t   t    
  19   G   t   t    
  20   G   t   t    
  21   G            
  22   G            
  23   G            
  24   G            
  25   G            
  26   G            
  27   G            
  28   G            
  29   G            
  30   G            
  31   G            
  32   G            
  33   G            
  34   G            
  35   G            
  36   G            
  37   G            
  38   G            
  39   G            
  40   G            
  41   G            
  42   G            
  43   G            
  44   G            
  45   G            
  46   G            
  47   G            
  48   G            
  49   G            
  50   G            
  51   G            
-------------------------------------------------------------------------------
Atomic short range NN for element  O :
Number of weights    :   1340
Number of biases     :     41
Number of connections:   1381
Architecture       46   20   20    1
-------------------------------------------------------------------------------
   1   G   t   t   l
   2   G   t   t    
   3   G   t   t    
   4   G   t   t    
   5   G   t   t    
   6   G   t   t    
   7   G   t   t    
   8   G   t   t    
   9   G   t   t    
  10   G   t   t    
  11   G   t   t    
  12   G   t   t    
  13   G   t   t    
  14   G   t   t    
  15   G   t   t    
  16   G   t   t    
  17   G   t   t    
  18   G   t   t    
  19   G   t   t    
  20   G   t   t    
  21   G            
  22   G            
  23   G            
  24   G            
  25   G            
  26   G            
  27   G            
  28   G            
  29   G            
  30   G            
  31   G            
  32   G            
  33   G            
  34   G            
  35   G            
  36   G            
  37   G            
  38   G            
  39   G            
  40   G            
  41   G            
  42   G            
  43   G            
  44   G            
  45   G            
  46   G            
-------------------------------------------------------------------------------
*******************************************************************************

*** SETUP: SYMMETRY FUNCTION SCALING ******************************************

Equal scaling type for all symmetry functions:
Scaling type::ST_SCALECENTER (3)
Gs = Smin + (Smax - Smin) * (G - Gmean) / (Gmax - Gmin)
Smin = 0.000000
Smax = 1.000000
Symmetry function scaling statistics from file: /ibiscostorage/VirtualMatterLab/train_008/scaling.data
-------------------------------------------------------------------------------

Abbreviations:
--------------
ind ..... Symmetry function index.
min ..... Minimum symmetry function value.
max ..... Maximum symmetry function value.
mean .... Mean symmetry function value.
sigma ... Standard deviation of symmetry function values.
sf ...... Scaling factor for derivatives.
Smin .... Desired minimum scaled symmetry function value.
Smax .... Desired maximum scaled symmetry function value.
t ....... Scaling type.

Scaling data for symmetry functions element  H :
-------------------------------------------------------------------------------
 ind       min       max      mean     sigma        sf  Smin  Smax t
-------------------------------------------------------------------------------
   1  4.04E-02  2.19E-01  1.23E-01  1.21E-02  5.59E+00  0.00  1.00 3
   2  3.80E-02  2.12E-01  1.19E-01  1.19E-02  5.74E+00  0.00  1.00 3
   3  3.33E-02  1.97E-01  1.11E-01  1.14E-02  6.10E+00  0.00  1.00 3
   4  2.74E-02  1.77E-01  9.99E-02  1.09E-02  6.68E+00  0.00  1.00 3
   5  3.40E-03  5.89E-02  2.26E-02  3.85E-03  1.80E+01  0.00  1.00 3
   6  1.51E-02  1.51E-01  7.29E-02  9.67E-03  7.37E+00  0.00  1.00 3
   7  2.84E-04  1.76E-02  4.24E-03  1.09E-03  5.77E+01  0.00  1.00 3
   8  1.89E-06  1.57E-03  1.54E-04  6.85E-05  6.36E+02  0.00  1.00 3
   9  5.06E-02  7.77E-01  2.12E-01  7.53E-02  1.38E+00  0.00  1.00 3
  10  4.40E-02  7.10E-01  1.89E-01  6.71E-02  1.50E+00  0.00  1.00 3
  11  3.25E-02  5.84E-01  1.48E-01  5.24E-02  1.81E+00  0.00  1.00 3
  12  2.05E-02  4.40E-01  1.05E-01  3.69E-02  2.38E+00  0.00  1.00 3
  13  6.46E-04  8.41E-02  7.20E-03  3.04E-03  1.20E+01  0.00  1.00 3
  14  5.14E-03  2.35E-01  4.03E-02  1.48E-02  4.35E+00  0.00  1.00 3
  15  7.22E-06  2.32E-02  3.64E-04  3.56E-04  4.31E+01  0.00  1.00 3
  16  2.87E-01  5.01E+00  2.43E+00  7.16E-01  2.12E-01  0.00  1.00 3
  17  3.57E-01  2.58E+00  1.42E+00  3.60E-01  4.49E-01  0.00  1.00 3
  18  2.43E-01  3.99E+00  1.81E+00  5.38E-01  2.67E-01  0.00  1.00 3
  19  3.35E-01  2.08E+00  1.11E+00  2.71E-01  5.73E-01  0.00  1.00 3
  20  1.85E-01  2.61E+00  1.04E+00  3.19E-01  4.13E-01  0.00  1.00 3
  21  2.90E-01  1.41E+00  7.23E-01  1.62E-01  8.89E-01  0.00  1.00 3
  22  1.30E-01  1.57E+00  5.48E-01  1.73E-01  6.93E-01  0.00  1.00 3
  23  2.30E-01  9.28E-01  4.71E-01  8.95E-02  1.43E+00  0.00  1.00 3
  24  3.76E-03  1.19E-01  2.17E-02  7.55E-03  8.65E+00  0.00  1.00 3
  25  2.63E-02  1.16E-01  6.75E-02  6.97E-03  1.12E+01  0.00  1.00 3
  26  3.08E-02  5.35E-01  1.39E-01  4.64E-02  1.98E+00  0.00  1.00 3
  27  1.20E-01  4.27E-01  2.40E-01  2.92E-02  3.26E+00  0.00  1.00 3
  28  4.36E-05  3.07E-02  9.11E-04  5.94E-04  3.26E+01  0.00  1.00 3
  29  2.01E-03  3.21E-02  1.17E-02  2.00E-03  3.33E+01  0.00  1.00 3
  30  1.39E-05  2.86E-03  4.14E-04  1.46E-04  3.51E+02  0.00  1.00 3
  31  1.06E-04  1.18E-02  1.24E-03  5.61E-04  8.59E+01  0.00  1.00 3
  32  1.37E-03  3.23E-02  9.38E-03  2.33E-03  3.23E+01  0.00  1.00 3
  33  5.07E-06  8.07E-03  2.16E-04  2.36E-04  1.24E+02  0.00  1.00 3
  34  1.15E-03  2.83E-02  8.36E-03  2.02E-03  3.69E+01  0.00  1.00 3
  35  9.77E-04  2.56E-02  7.47E-03  1.80E-03  4.06E+01  0.00  1.00 3
  36  8.36E-04  7.01E-02  8.02E-03  4.92E-03  1.44E+01  0.00  1.00 3
  37  1.00E-02  1.75E-01  4.15E-02  1.48E-02  6.05E+00  0.00  1.00 3
  38  4.64E-05  3.24E-02  2.93E-03  2.49E-03  3.09E+01  0.00  1.00 3
  39  9.09E-03  1.38E-01  3.64E-02  1.24E-02  7.78E+00  0.00  1.00 3
  40  8.26E-03  1.16E-01  3.25E-02  1.09E-02  9.32E+00  0.00  1.00 3
  41  1.57E-08  6.96E-02  1.97E-02  9.93E-03  1.44E+01  0.00  1.00 3
  42  5.75E-05  1.28E-01  3.44E-02  2.11E-02  7.85E+00  0.00  1.00 3
  43  3.79E-06  1.13E-01  2.14E-02  1.26E-02  8.83E+00  0.00  1.00 3
  44  2.50E-02  6.21E-01  1.86E-01  7.74E-02  1.68E+00  0.00  1.00 3
  45  2.30E-03  1.85E-01  2.67E-02  1.61E-02  5.49E+00  0.00  1.00 3
  46  2.08E-07  5.70E-02  9.20E-03  5.99E-03  1.76E+01  0.00  1.00 3
  47  2.11E-02  4.33E-01  1.06E-01  4.36E-02  2.43E+00  0.00  1.00 3
  48  9.37E-06  5.43E-02  8.18E-03  6.31E-03  1.84E+01  0.00  1.00 3
  49  6.23E-04  4.65E-02  5.25E-03  2.91E-03  2.18E+01  0.00  1.00 3
  50  7.25E-03  1.18E-01  2.99E-02  9.36E-03  9.02E+00  0.00  1.00 3
  51  1.35E-04  1.22E-02  2.53E-03  7.01E-04  8.29E+01  0.00  1.00 3
-------------------------------------------------------------------------------
Scaling data for symmetry functions element  O :
-------------------------------------------------------------------------------
 ind       min       max      mean     sigma        sf  Smin  Smax t
-------------------------------------------------------------------------------
   1  1.23E-01  5.19E-01  2.47E-01  2.13E-02  2.52E+00  0.00  1.00 3
   2  1.17E-01  5.05E-01  2.39E-01  2.08E-02  2.58E+00  0.00  1.00 3
   3  1.04E-01  4.75E-01  2.22E-01  1.99E-02  2.70E+00  0.00  1.00 3
   4  8.75E-02  4.33E-01  2.00E-01  1.87E-02  2.89E+00  0.00  1.00 3
   5  1.33E-02  1.08E-01  4.52E-02  5.99E-03  1.05E+01  0.00  1.00 3
   6  5.26E-02  3.30E-01  1.46E-01  1.58E-02  3.61E+00  0.00  1.00 3
   7  1.27E-03  2.38E-02  8.48E-03  1.61E-03  4.43E+01  0.00  1.00 3
   8  1.32E-05  1.74E-03  3.08E-04  9.83E-05  5.80E+02  0.00  1.00 3
   9  7.15E-01  5.30E+00  2.84E+00  6.97E-01  2.18E-01  0.00  1.00 3
  10  5.63E-02  2.20E+00  1.07E+00  3.48E-01  4.67E-01  0.00  1.00 3
  11  6.57E-01  4.29E+00  2.21E+00  5.21E-01  2.75E-01  0.00  1.00 3
  12  3.10E-02  1.71E+00  7.61E-01  2.60E-01  5.97E-01  0.00  1.00 3
  13  4.48E-01  1.95E+00  9.78E-01  1.86E-01  6.68E-01  0.00  1.00 3
  14  8.71E-03  1.04E+00  3.86E-01  1.48E-01  9.66E-01  0.00  1.00 3
  15  3.09E-04  2.15E-01  5.28E-02  2.71E-02  4.65E+00  0.00  1.00 3
  16  4.91E-01  1.87E+00  9.42E-01  1.60E-01  7.24E-01  0.00  1.00 3
  17  1.41E-03  5.49E-01  1.56E-01  7.23E-02  1.83E+00  0.00  1.00 3
  18  2.41E-04  3.02E-01  6.77E-02  3.74E-02  3.31E+00  0.00  1.00 3
  19  2.94E-01  8.48E-01  4.80E-01  4.78E-02  1.81E+00  0.00  1.00 3
  20  7.34E-06  9.73E-02  1.41E-02  1.06E-02  1.03E+01  0.00  1.00 3
  21  1.25E-01  5.24E-01  2.51E-01  2.23E-02  2.51E+00  0.00  1.00 3
  22  2.26E-02  2.12E-01  8.64E-02  1.26E-02  5.27E+00  0.00  1.00 3
  23  1.03E-03  3.76E-02  6.42E-03  1.53E-03  2.73E+01  0.00  1.00 3
  24  4.62E-04  2.45E-02  4.20E-03  1.54E-03  4.15E+01  0.00  1.00 3
  25  6.15E-04  2.47E-02  4.02E-03  1.02E-03  4.15E+01  0.00  1.00 3
  26  8.49E-05  1.63E-02  1.81E-03  9.66E-04  6.15E+01  0.00  1.00 3
  27  2.81E-04  1.64E-02  2.57E-03  7.55E-04  6.22E+01  0.00  1.00 3
  28  7.63E-03  9.80E-02  2.60E-02  7.44E-03  1.11E+01  0.00  1.00 3
  29  3.68E-03  1.54E-01  2.35E-02  1.17E-02  6.65E+00  0.00  1.00 3
  30  4.24E-03  6.38E-02  1.59E-02  4.41E-03  1.68E+01  0.00  1.00 3
  31  1.13E-03  1.11E-01  1.35E-02  8.57E-03  9.12E+00  0.00  1.00 3
  32  1.82E-03  4.23E-02  1.03E-02  3.09E-03  2.47E+01  0.00  1.00 3
  33  1.08E-05  1.37E-01  2.43E-02  1.44E-02  7.31E+00  0.00  1.00 3
  34  3.29E-13  1.89E-02  1.54E-03  1.48E-03  5.30E+01  0.00  1.00 3
  35  3.62E-03  9.14E-01  2.70E-01  1.34E-01  1.10E+00  0.00  1.00 3
  36  3.84E-07  8.64E-02  2.00E-02  1.56E-02  1.16E+01  0.00  1.00 3
  37  2.69E-03  1.44E-01  3.77E-02  1.39E-02  7.06E+00  0.00  1.00 3
  38  1.28E-03  5.24E-01  1.07E-01  6.05E-02  1.91E+00  0.00  1.00 3
  39  1.53E-02  2.33E-01  6.00E-02  1.98E-02  4.60E+00  0.00  1.00 3
  40  1.57E-05  9.71E-02  1.24E-02  9.24E-03  1.03E+01  0.00  1.00 3
  41  8.59E-11  1.16E-02  8.37E-04  9.11E-04  8.65E+01  0.00  1.00 3
  42  9.18E-03  4.12E-01  7.24E-02  3.77E-02  2.48E+00  0.00  1.00 3
  43  1.79E-04  3.31E-01  5.71E-02  3.55E-02  3.02E+00  0.00  1.00 3
  44  7.43E-10  2.44E-02  2.42E-03  2.59E-03  4.11E+01  0.00  1.00 3
  45  5.52E-03  8.47E-02  1.93E-02  5.06E-03  1.26E+01  0.00  1.00 3
  46  2.66E-03  1.00E-01  1.59E-02  7.03E-03  1.03E+01  0.00  1.00 3
-------------------------------------------------------------------------------
*******************************************************************************

*** SETUP: SYMMETRY FUNCTION STATISTICS ***************************************

Equal symmetry function statistics for all elements.
Collect min/max/mean/sigma                        : 0
Collect extrapolation warnings                    : 1
Write extrapolation warnings immediately to stderr: 0
Halt on any extrapolation warning                 : 0
*******************************************************************************

*** SETUP: NEURAL NETWORK WEIGHTS *********************************************

Short  NN weight file name format: /ibiscostorage/VirtualMatterLab/train_008/weights.%03d.data
Setting short  NN weights for element  H from file: /ibiscostorage/VirtualMatterLab/train_008/weights.001.data
Setting short  NN weights for element  O from file: /ibiscostorage/VirtualMatterLab/train_008/weights.008.data
*******************************************************************************

*** SETUP: LAMMPS INTERFACE ***************************************************

Individual extrapolation warnings will not be shown.
Extrapolation warning summary will be shown every 1 timesteps.
The simulation will be stopped when 200000 extrapolation warnings are exceeded.
Extrapolation warning counter is reset every time step.
-------------------------------------------------------------------------------
CAUTION: If the LAMMPS unit system differs from the one used
         during NN training, appropriate conversion factors
         must be provided (see keywords cflength and cfenergy).

Length unit conversion factor:   1.8897260000000000E+00
Energy unit conversion factor:   3.6748999999999997E-02

Checking consistency of cutoff radii (in LAMMPS units):
LAMMPS Cutoff (via pair_coeff)  :   8.467E+00
Maximum symmetry function cutoff:   6.350E+00
!!!!!!!!!!!!!!!!!!!!!!!!!!!!!!!!!!!!!!!!!
WARNING: Potential length units mismatch!
!!!!!!!!!!!!!!!!!!!!!!!!!!!!!!!!!!!!!!!!!
-------------------------------------------------------------------------------
Element mapping string from LAMMPS to n2p2: "1:H,2:O"

CAUTION: Please ensure that this mapping between LAMMPS
         atom types and NNP elements is consistent:

---------------------------
LAMMPS type  |  NNP element
---------------------------
          1 <->  H (  1)
          2 <->  O (  8)
---------------------------

NNP setup for LAMMPS completed.
*******************************************************************************
Neighbor list info ...
  update: every = 1 steps, delay = 0 steps, check = yes
  max neighbors/atom: 2000, page size: 100000
  master list distance cutoff = 10.466836
  ghost atom cutoff = 10.466836
  binsize = 5.233418, bins = 2 2 1
  1 neighbor lists, perpetual/occasional/extra = 1 0 0
  (1) pair hdnnp, perpetual
      attributes: full, newton on
      pair build: full/bin/atomonly
      stencil: full/bin/3d
      bin: standard
### NNP EW SUMMARY ### TS:          0 EW          0 EWPERSTEP  0.000e+00
Per MPI rank memory allocation (min/avg/max) = 5.691 | 5.691 | 5.691 Mbytes
    PotEng          Pxx           E_mol          E_coul    
-5634.7675     -36566.328      0              0            
Loop time of 2.663e-06 on 4 procs for 0 steps with 36 atoms

225.3% CPU use with 1 MPI tasks x 4 OpenMP threads

MPI task timing breakdown:
Section |  min time  |  avg time  |  max time  |%varavg| %total
---------------------------------------------------------------
Pair    | 0          | 0          | 0          |   0.0 |  0.00
Neigh   | 0          | 0          | 0          |   0.0 |  0.00
Comm    | 0          | 0          | 0          |   0.0 |  0.00
Output  | 0          | 0          | 0          |   0.0 |  0.00
Modify  | 0          | 0          | 0          |   0.0 |  0.00
Other   |            | 2.663e-06  |            |       |100.00

Nlocal:             36 ave          36 max          36 min
Histogram: 1 0 0 0 0 0 0 0 0 0
Nghost:           2700 ave        2700 max        2700 min
Histogram: 1 0 0 0 0 0 0 0 0 0
Neighs:              0 ave           0 max           0 min
Histogram: 1 0 0 0 0 0 0 0 0 0
FullNghs:        22168 ave       22168 max       22168 min
Histogram: 1 0 0 0 0 0 0 0 0 0

Total # of neighbors = 22168
Ave neighs/atom = 615.77778
Neighbor list builds = 0
Dangerous builds = 0
set atom * x 0.0 y 0.0 z 0.0
Setting atom values ...
  36 settings made for x
  36 settings made for y
  36 settings made for z
change_box all     x final 0 8.367524080544033 y final 0 8.156219457951421 z final 0 4.091091493078096      xy final -5.8867594617017696e-09 xz final 1.5510144698232719e-09 yz final -2.563825628133891e-09 units box
Changing box ...
  triclinic box = (0 0 0) to (8.3675241 8.156852 4.091404) with tilt (0 0 0)
  triclinic box = (0 0 0) to (8.3675241 8.1562195 4.091404) with tilt (0 0 0)
  triclinic box = (0 0 0) to (8.3675241 8.1562195 4.0910915) with tilt (0 0 0)
  triclinic box = (0 0 0) to (8.3675241 8.1562195 4.0910915) with tilt (-5.8867595e-09 0 0)
  triclinic box = (0 0 0) to (8.3675241 8.1562195 4.0910915) with tilt (-5.8867595e-09 1.5510145e-09 0)
  triclinic box = (0 0 0) to (8.3675241 8.1562195 4.0910915) with tilt (-5.8867595e-09 1.5510145e-09 -2.5638256e-09)
echo none
run 0
WARNING: No fixes with time integration, atoms won't move (src/verlet.cpp:60)
### NNP EW SUMMARY ### TS:          0 EW          0 EWPERSTEP  0.000e+00
Per MPI rank memory allocation (min/avg/max) = 5.691 | 5.691 | 5.691 Mbytes
    PotEng          Pxx           E_mol          E_coul    
-5634.9033     -7622.7806      0              0            
Loop time of 1.2989e-05 on 4 procs for 0 steps with 36 atoms

177.1% CPU use with 1 MPI tasks x 4 OpenMP threads

MPI task timing breakdown:
Section |  min time  |  avg time  |  max time  |%varavg| %total
---------------------------------------------------------------
Pair    | 0          | 0          | 0          |   0.0 |  0.00
Neigh   | 0          | 0          | 0          |   0.0 |  0.00
Comm    | 0          | 0          | 0          |   0.0 |  0.00
Output  | 0          | 0          | 0          |   0.0 |  0.00
Modify  | 0          | 0          | 0          |   0.0 |  0.00
Other   |            | 1.299e-05  |            |       |100.00

Nlocal:             36 ave          36 max          36 min
Histogram: 1 0 0 0 0 0 0 0 0 0
Nghost:           2700 ave        2700 max        2700 min
Histogram: 1 0 0 0 0 0 0 0 0 0
Neighs:              0 ave           0 max           0 min
Histogram: 1 0 0 0 0 0 0 0 0 0
FullNghs:        22168 ave       22168 max       22168 min
Histogram: 1 0 0 0 0 0 0 0 0 0

Total # of neighbors = 22168
Ave neighs/atom = 615.77778
Neighbor list builds = 0
Dangerous builds = 0
set atom * x 0.0 y 0.0 z 0.0
Setting atom values ...
  36 settings made for x
  36 settings made for y
  36 settings made for z
change_box all     x final 0 8.36739425144247 y final 0 8.1561340179193 z final 0 4.0910342085901314      xy final -4.695626947069524e-09 xz final 2.4630671313665376e-09 yz final -2.567361692798024e-09 units box
Changing box ...
  triclinic box = (0 0 0) to (8.3673943 8.1562195 4.0910915) with tilt (-5.8867595e-09 1.5510145e-09 -2.5638256e-09)
  triclinic box = (0 0 0) to (8.3673943 8.156134 4.0910915) with tilt (-5.8867595e-09 1.5510145e-09 -2.5638256e-09)
  triclinic box = (0 0 0) to (8.3673943 8.156134 4.0910342) with tilt (-5.8867595e-09 1.5510145e-09 -2.5638256e-09)
  triclinic box = (0 0 0) to (8.3673943 8.156134 4.0910342) with tilt (-4.6956269e-09 1.5510145e-09 -2.5638256e-09)
  triclinic box = (0 0 0) to (8.3673943 8.156134 4.0910342) with tilt (-4.6956269e-09 2.4630671e-09 -2.5638256e-09)
  triclinic box = (0 0 0) to (8.3673943 8.156134 4.0910342) with tilt (-4.6956269e-09 2.4630671e-09 -2.5673617e-09)
echo none
run 0
WARNING: No fixes with time integration, atoms won't move (src/verlet.cpp:60)
### NNP EW SUMMARY ### TS:          0 EW          0 EWPERSTEP  0.000e+00
Per MPI rank memory allocation (min/avg/max) = 5.691 | 5.691 | 5.691 Mbytes
    PotEng          Pxx           E_mol          E_coul    
-5634.9065     -7274.7754      0              0            
Loop time of 1.0007e-05 on 4 procs for 0 steps with 36 atoms

179.9% CPU use with 1 MPI tasks x 4 OpenMP threads

MPI task timing breakdown:
Section |  min time  |  avg time  |  max time  |%varavg| %total
---------------------------------------------------------------
Pair    | 0          | 0          | 0          |   0.0 |  0.00
Neigh   | 0          | 0          | 0          |   0.0 |  0.00
Comm    | 0          | 0          | 0          |   0.0 |  0.00
Output  | 0          | 0          | 0          |   0.0 |  0.00
Modify  | 0          | 0          | 0          |   0.0 |  0.00
Other   |            | 1.001e-05  |            |       |100.00

Nlocal:             36 ave          36 max          36 min
Histogram: 1 0 0 0 0 0 0 0 0 0
Nghost:           2700 ave        2700 max        2700 min
Histogram: 1 0 0 0 0 0 0 0 0 0
Neighs:              0 ave           0 max           0 min
Histogram: 1 0 0 0 0 0 0 0 0 0
FullNghs:        22168 ave       22168 max       22168 min
Histogram: 1 0 0 0 0 0 0 0 0 0

Total # of neighbors = 22168
Ave neighs/atom = 615.77778
Neighbor list builds = 0
Dangerous builds = 0
set atom * x 0.0 y 0.0 z 0.0
Setting atom values ...
  36 settings made for x
  36 settings made for y
  36 settings made for z
change_box all     x final 0 8.366721419293574 y final 0 8.15567192371226 z final 0 4.090749310146106      xy final -1.842054335613883e-08 xz final 9.264648944374221e-09 yz final -1.0298903748536984e-08 units box
Changing box ...
  triclinic box = (0 0 0) to (8.3667214 8.156134 4.0910342) with tilt (-4.6956269e-09 2.4630671e-09 -2.5673617e-09)
  triclinic box = (0 0 0) to (8.3667214 8.1556719 4.0910342) with tilt (-4.6956269e-09 2.4630671e-09 -2.5673617e-09)
  triclinic box = (0 0 0) to (8.3667214 8.1556719 4.0907493) with tilt (-4.6956269e-09 2.4630671e-09 -2.5673617e-09)
  triclinic box = (0 0 0) to (8.3667214 8.1556719 4.0907493) with tilt (-1.8420543e-08 2.4630671e-09 -2.5673617e-09)
  triclinic box = (0 0 0) to (8.3667214 8.1556719 4.0907493) with tilt (-1.8420543e-08 9.2646489e-09 -2.5673617e-09)
  triclinic box = (0 0 0) to (8.3667214 8.1556719 4.0907493) with tilt (-1.8420543e-08 9.2646489e-09 -1.0298904e-08)
echo none
run 0
WARNING: No fixes with time integration, atoms won't move (src/verlet.cpp:60)
### NNP EW SUMMARY ### TS:          0 EW          0 EWPERSTEP  0.000e+00
Per MPI rank memory allocation (min/avg/max) = 5.691 | 5.691 | 5.691 Mbytes
    PotEng          Pxx           E_mol          E_coul    
-5634.913      -4657.8194      0              0            
Loop time of 1.0901e-05 on 4 procs for 0 steps with 36 atoms

192.6% CPU use with 1 MPI tasks x 4 OpenMP threads

MPI task timing breakdown:
Section |  min time  |  avg time  |  max time  |%varavg| %total
---------------------------------------------------------------
Pair    | 0          | 0          | 0          |   0.0 |  0.00
Neigh   | 0          | 0          | 0          |   0.0 |  0.00
Comm    | 0          | 0          | 0          |   0.0 |  0.00
Output  | 0          | 0          | 0          |   0.0 |  0.00
Modify  | 0          | 0          | 0          |   0.0 |  0.00
Other   |            | 1.09e-05   |            |       |100.00

Nlocal:             36 ave          36 max          36 min
Histogram: 1 0 0 0 0 0 0 0 0 0
Nghost:           2700 ave        2700 max        2700 min
Histogram: 1 0 0 0 0 0 0 0 0 0
Neighs:              0 ave           0 max           0 min
Histogram: 1 0 0 0 0 0 0 0 0 0
FullNghs:        22208 ave       22208 max       22208 min
Histogram: 1 0 0 0 0 0 0 0 0 0

Total # of neighbors = 22208
Ave neighs/atom = 616.88889
Neighbor list builds = 0
Dangerous builds = 0
set atom * x 0.0 y 0.0 z 0.0
Setting atom values ...
  36 settings made for x
  36 settings made for y
  36 settings made for z
change_box all     x final 0 8.366609105712877 y final 0 8.155560279727599 z final 0 4.09070156593251      xy final -6.6625155873830895e-09 xz final 4.81458850825276e-09 yz final -4.413136678733429e-09 units box
Changing box ...
  triclinic box = (0 0 0) to (8.3666091 8.1556719 4.0907493) with tilt (-1.8420543e-08 9.2646489e-09 -1.0298904e-08)
  triclinic box = (0 0 0) to (8.3666091 8.1555603 4.0907493) with tilt (-1.8420543e-08 9.2646489e-09 -1.0298904e-08)
  triclinic box = (0 0 0) to (8.3666091 8.1555603 4.0907016) with tilt (-1.8420543e-08 9.2646489e-09 -1.0298904e-08)
  triclinic box = (0 0 0) to (8.3666091 8.1555603 4.0907016) with tilt (-6.6625156e-09 9.2646489e-09 -1.0298904e-08)
  triclinic box = (0 0 0) to (8.3666091 8.1555603 4.0907016) with tilt (-6.6625156e-09 4.8145885e-09 -1.0298904e-08)
  triclinic box = (0 0 0) to (8.3666091 8.1555603 4.0907016) with tilt (-6.6625156e-09 4.8145885e-09 -4.4131367e-09)
echo none
run 0
WARNING: No fixes with time integration, atoms won't move (src/verlet.cpp:60)
### NNP EW SUMMARY ### TS:          0 EW          0 EWPERSTEP  0.000e+00
Per MPI rank memory allocation (min/avg/max) = 5.691 | 5.691 | 5.691 Mbytes
    PotEng          Pxx           E_mol          E_coul    
-5634.9136     -4739.0466      0              0            
Loop time of 9.685e-06 on 4 procs for 0 steps with 36 atoms

216.8% CPU use with 1 MPI tasks x 4 OpenMP threads

MPI task timing breakdown:
Section |  min time  |  avg time  |  max time  |%varavg| %total
---------------------------------------------------------------
Pair    | 0          | 0          | 0          |   0.0 |  0.00
Neigh   | 0          | 0          | 0          |   0.0 |  0.00
Comm    | 0          | 0          | 0          |   0.0 |  0.00
Output  | 0          | 0          | 0          |   0.0 |  0.00
Modify  | 0          | 0          | 0          |   0.0 |  0.00
Other   |            | 9.685e-06  |            |       |100.00

Nlocal:             36 ave          36 max          36 min
Histogram: 1 0 0 0 0 0 0 0 0 0
Nghost:           2700 ave        2700 max        2700 min
Histogram: 1 0 0 0 0 0 0 0 0 0
Neighs:              0 ave           0 max           0 min
Histogram: 1 0 0 0 0 0 0 0 0 0
FullNghs:        22208 ave       22208 max       22208 min
Histogram: 1 0 0 0 0 0 0 0 0 0

Total # of neighbors = 22208
Ave neighs/atom = 616.88889
Neighbor list builds = 0
Dangerous builds = 0
set atom * x 0.0 y 0.0 z 0.0
Setting atom values ...
  36 settings made for x
  36 settings made for y
  36 settings made for z
change_box all     x final 0 8.366051101773241 y final 0 8.154998713355628 z final 0 4.090473192229803      xy final -3.0602767207150327e-09 xz final 4.433129540198832e-09 yz final -2.9177686225893247e-09 units box
Changing box ...
  triclinic box = (0 0 0) to (8.3660511 8.1555603 4.0907016) with tilt (-6.6625156e-09 4.8145885e-09 -4.4131367e-09)
  triclinic box = (0 0 0) to (8.3660511 8.1549987 4.0907016) with tilt (-6.6625156e-09 4.8145885e-09 -4.4131367e-09)
  triclinic box = (0 0 0) to (8.3660511 8.1549987 4.0904732) with tilt (-6.6625156e-09 4.8145885e-09 -4.4131367e-09)
  triclinic box = (0 0 0) to (8.3660511 8.1549987 4.0904732) with tilt (-3.0602767e-09 4.8145885e-09 -4.4131367e-09)
  triclinic box = (0 0 0) to (8.3660511 8.1549987 4.0904732) with tilt (-3.0602767e-09 4.4331295e-09 -4.4131367e-09)
  triclinic box = (0 0 0) to (8.3660511 8.1549987 4.0904732) with tilt (-3.0602767e-09 4.4331295e-09 -2.9177686e-09)
echo none
run 0
WARNING: No fixes with time integration, atoms won't move (src/verlet.cpp:60)
### NNP EW SUMMARY ### TS:          0 EW          0 EWPERSTEP  0.000e+00
Per MPI rank memory allocation (min/avg/max) = 5.691 | 5.691 | 5.691 Mbytes
    PotEng          Pxx           E_mol          E_coul    
-5634.9157     -4979.8969      0              0            
Loop time of 9.519e-06 on 4 procs for 0 steps with 36 atoms

199.6% CPU use with 1 MPI tasks x 4 OpenMP threads

MPI task timing breakdown:
Section |  min time  |  avg time  |  max time  |%varavg| %total
---------------------------------------------------------------
Pair    | 0          | 0          | 0          |   0.0 |  0.00
Neigh   | 0          | 0          | 0          |   0.0 |  0.00
Comm    | 0          | 0          | 0          |   0.0 |  0.00
Output  | 0          | 0          | 0          |   0.0 |  0.00
Modify  | 0          | 0          | 0          |   0.0 |  0.00
Other   |            | 9.519e-06  |            |       |100.00

Nlocal:             36 ave          36 max          36 min
Histogram: 1 0 0 0 0 0 0 0 0 0
Nghost:           2700 ave        2700 max        2700 min
Histogram: 1 0 0 0 0 0 0 0 0 0
Neighs:              0 ave           0 max           0 min
Histogram: 1 0 0 0 0 0 0 0 0 0
FullNghs:        22200 ave       22200 max       22200 min
Histogram: 1 0 0 0 0 0 0 0 0 0

Total # of neighbors = 22200
Ave neighs/atom = 616.66667
Neighbor list builds = 0
Dangerous builds = 0
set atom * x 0.0 y 0.0 z 0.0
Setting atom values ...
  36 settings made for x
  36 settings made for y
  36 settings made for z
change_box all     x final 0 8.364737328779224 y final 0 8.153671765650188 z final 0 4.089943071881272      xy final -5.345276120741911e-10 xz final 2.795470974316029e-09 yz final -8.2360225567533e-10 units box
Changing box ...
  triclinic box = (0 0 0) to (8.3647373 8.1549987 4.0904732) with tilt (-3.0602767e-09 4.4331295e-09 -2.9177686e-09)
  triclinic box = (0 0 0) to (8.3647373 8.1536718 4.0904732) with tilt (-3.0602767e-09 4.4331295e-09 -2.9177686e-09)
  triclinic box = (0 0 0) to (8.3647373 8.1536718 4.0899431) with tilt (-3.0602767e-09 4.4331295e-09 -2.9177686e-09)
  triclinic box = (0 0 0) to (8.3647373 8.1536718 4.0899431) with tilt (-5.3452761e-10 4.4331295e-09 -2.9177686e-09)
  triclinic box = (0 0 0) to (8.3647373 8.1536718 4.0899431) with tilt (-5.3452761e-10 2.795471e-09 -2.9177686e-09)
  triclinic box = (0 0 0) to (8.3647373 8.1536718 4.0899431) with tilt (-5.3452761e-10 2.795471e-09 -8.2360226e-10)
echo none
run 0
WARNING: No fixes with time integration, atoms won't move (src/verlet.cpp:60)
### NNP EW SUMMARY ### TS:          0 EW          0 EWPERSTEP  0.000e+00
Per MPI rank memory allocation (min/avg/max) = 5.691 | 5.691 | 5.691 Mbytes
    PotEng          Pxx           E_mol          E_coul    
-5634.9191     -5561.8896      0              0            
Loop time of 1.0538e-05 on 4 procs for 0 steps with 36 atoms

0.0% CPU use with 1 MPI tasks x 4 OpenMP threads

MPI task timing breakdown:
Section |  min time  |  avg time  |  max time  |%varavg| %total
---------------------------------------------------------------
Pair    | 0          | 0          | 0          |   0.0 |  0.00
Neigh   | 0          | 0          | 0          |   0.0 |  0.00
Comm    | 0          | 0          | 0          |   0.0 |  0.00
Output  | 0          | 0          | 0          |   0.0 |  0.00
Modify  | 0          | 0          | 0          |   0.0 |  0.00
Other   |            | 1.054e-05  |            |       |100.00

Nlocal:             36 ave          36 max          36 min
Histogram: 1 0 0 0 0 0 0 0 0 0
Nghost:           2700 ave        2700 max        2700 min
Histogram: 1 0 0 0 0 0 0 0 0 0
Neighs:              0 ave           0 max           0 min
Histogram: 1 0 0 0 0 0 0 0 0 0
FullNghs:        22176 ave       22176 max       22176 min
Histogram: 1 0 0 0 0 0 0 0 0 0

Total # of neighbors = 22176
Ave neighs/atom = 616
Neighbor list builds = 0
Dangerous builds = 0
set atom * x 0.0 y 0.0 z 0.0
Setting atom values ...
  36 settings made for x
  36 settings made for y
  36 settings made for z
change_box all     x final 0 8.363549282965197 y final 0 8.152471513172694 z final 0 4.089469003761586      xy final -4.0509318575946165e-09 xz final 9.708068999865342e-10 yz final -6.175146706315769e-10 units box
Changing box ...
  triclinic box = (0 0 0) to (8.3635493 8.1536718 4.0899431) with tilt (-5.3452761e-10 2.795471e-09 -8.2360226e-10)
  triclinic box = (0 0 0) to (8.3635493 8.1524715 4.0899431) with tilt (-5.3452761e-10 2.795471e-09 -8.2360226e-10)
  triclinic box = (0 0 0) to (8.3635493 8.1524715 4.089469) with tilt (-5.3452761e-10 2.795471e-09 -8.2360226e-10)
  triclinic box = (0 0 0) to (8.3635493 8.1524715 4.089469) with tilt (-4.0509319e-09 2.795471e-09 -8.2360226e-10)
  triclinic box = (0 0 0) to (8.3635493 8.1524715 4.089469) with tilt (-4.0509319e-09 9.708069e-10 -8.2360226e-10)
  triclinic box = (0 0 0) to (8.3635493 8.1524715 4.089469) with tilt (-4.0509319e-09 9.708069e-10 -6.1751467e-10)
echo none
run 0
WARNING: No fixes with time integration, atoms won't move (src/verlet.cpp:60)
### NNP EW SUMMARY ### TS:          0 EW          0 EWPERSTEP  0.000e+00
Per MPI rank memory allocation (min/avg/max) = 5.691 | 5.691 | 5.691 Mbytes
    PotEng          Pxx           E_mol          E_coul    
-5634.9213     -5907.2024      0              0            
Loop time of 1.0083e-05 on 4 procs for 0 steps with 36 atoms

218.2% CPU use with 1 MPI tasks x 4 OpenMP threads

MPI task timing breakdown:
Section |  min time  |  avg time  |  max time  |%varavg| %total
---------------------------------------------------------------
Pair    | 0          | 0          | 0          |   0.0 |  0.00
Neigh   | 0          | 0          | 0          |   0.0 |  0.00
Comm    | 0          | 0          | 0          |   0.0 |  0.00
Output  | 0          | 0          | 0          |   0.0 |  0.00
Modify  | 0          | 0          | 0          |   0.0 |  0.00
Other   |            | 1.008e-05  |            |       |100.00

Nlocal:             36 ave          36 max          36 min
Histogram: 1 0 0 0 0 0 0 0 0 0
Nghost:           2700 ave        2700 max        2700 min
Histogram: 1 0 0 0 0 0 0 0 0 0
Neighs:              0 ave           0 max           0 min
Histogram: 1 0 0 0 0 0 0 0 0 0
FullNghs:        22176 ave       22176 max       22176 min
Histogram: 1 0 0 0 0 0 0 0 0 0

Total # of neighbors = 22176
Ave neighs/atom = 616
Neighbor list builds = 0
Dangerous builds = 0
set atom * x 0.0 y 0.0 z 0.0
Setting atom values ...
  36 settings made for x
  36 settings made for y
  36 settings made for z
change_box all     x final 0 8.362749728812181 y final 0 8.151666680153383 z final 0 4.089152986034644      xy final -8.688356956357313e-09 xz final 8.483431634234195e-11 yz final -1.2339663165902684e-09 units box
Changing box ...
  triclinic box = (0 0 0) to (8.3627497 8.1524715 4.089469) with tilt (-4.0509319e-09 9.708069e-10 -6.1751467e-10)
  triclinic box = (0 0 0) to (8.3627497 8.1516667 4.089469) with tilt (-4.0509319e-09 9.708069e-10 -6.1751467e-10)
  triclinic box = (0 0 0) to (8.3627497 8.1516667 4.089153) with tilt (-4.0509319e-09 9.708069e-10 -6.1751467e-10)
  triclinic box = (0 0 0) to (8.3627497 8.1516667 4.089153) with tilt (-8.688357e-09 9.708069e-10 -6.1751467e-10)
  triclinic box = (0 0 0) to (8.3627497 8.1516667 4.089153) with tilt (-8.688357e-09 8.4834316e-11 -6.1751467e-10)
  triclinic box = (0 0 0) to (8.3627497 8.1516667 4.089153) with tilt (-8.688357e-09 8.4834316e-11 -1.2339663e-09)
echo none
run 0
WARNING: No fixes with time integration, atoms won't move (src/verlet.cpp:60)
### NNP EW SUMMARY ### TS:          0 EW          0 EWPERSTEP  0.000e+00
Per MPI rank memory allocation (min/avg/max) = 5.691 | 5.691 | 5.691 Mbytes
    PotEng          Pxx           E_mol          E_coul    
-5634.9225     -5906.1566      0              0            
Loop time of 1.0472e-05 on 4 procs for 0 steps with 36 atoms

200.5% CPU use with 1 MPI tasks x 4 OpenMP threads

MPI task timing breakdown:
Section |  min time  |  avg time  |  max time  |%varavg| %total
---------------------------------------------------------------
Pair    | 0          | 0          | 0          |   0.0 |  0.00
Neigh   | 0          | 0          | 0          |   0.0 |  0.00
Comm    | 0          | 0          | 0          |   0.0 |  0.00
Output  | 0          | 0          | 0          |   0.0 |  0.00
Modify  | 0          | 0          | 0          |   0.0 |  0.00
Other   |            | 1.047e-05  |            |       |100.00

Nlocal:             36 ave          36 max          36 min
Histogram: 1 0 0 0 0 0 0 0 0 0
Nghost:           2700 ave        2700 max        2700 min
Histogram: 1 0 0 0 0 0 0 0 0 0
Neighs:              0 ave           0 max           0 min
Histogram: 1 0 0 0 0 0 0 0 0 0
FullNghs:        22208 ave       22208 max       22208 min
Histogram: 1 0 0 0 0 0 0 0 0 0

Total # of neighbors = 22208
Ave neighs/atom = 616.88889
Neighbor list builds = 0
Dangerous builds = 0
set atom * x 0.0 y 0.0 z 0.0
Setting atom values ...
  36 settings made for x
  36 settings made for y
  36 settings made for z
change_box all     x final 0 8.362126532659456 y final 0 8.151045025397506 z final 0 4.088906581664769      xy final -2.681339188351776e-08 xz final -1.3396225829925662e-10 yz final -4.4328495040072805e-09 units box
Changing box ...
  triclinic box = (0 0 0) to (8.3621265 8.1516667 4.089153) with tilt (-8.688357e-09 8.4834316e-11 -1.2339663e-09)
  triclinic box = (0 0 0) to (8.3621265 8.151045 4.089153) with tilt (-8.688357e-09 8.4834316e-11 -1.2339663e-09)
  triclinic box = (0 0 0) to (8.3621265 8.151045 4.0889066) with tilt (-8.688357e-09 8.4834316e-11 -1.2339663e-09)
  triclinic box = (0 0 0) to (8.3621265 8.151045 4.0889066) with tilt (-2.6813392e-08 8.4834316e-11 -1.2339663e-09)
  triclinic box = (0 0 0) to (8.3621265 8.151045 4.0889066) with tilt (-2.6813392e-08 -1.3396226e-10 -1.2339663e-09)
  triclinic box = (0 0 0) to (8.3621265 8.151045 4.0889066) with tilt (-2.6813392e-08 -1.3396226e-10 -4.4328495e-09)
echo none
run 0
WARNING: No fixes with time integration, atoms won't move (src/verlet.cpp:60)
### NNP EW SUMMARY ### TS:          0 EW          0 EWPERSTEP  0.000e+00
Per MPI rank memory allocation (min/avg/max) = 5.691 | 5.691 | 5.691 Mbytes
    PotEng          Pxx           E_mol          E_coul    
-5634.9234     -5812.4669      0              0            
Loop time of 9.438e-06 on 4 procs for 0 steps with 36 atoms

190.7% CPU use with 1 MPI tasks x 4 OpenMP threads

MPI task timing breakdown:
Section |  min time  |  avg time  |  max time  |%varavg| %total
---------------------------------------------------------------
Pair    | 0          | 0          | 0          |   0.0 |  0.00
Neigh   | 0          | 0          | 0          |   0.0 |  0.00
Comm    | 0          | 0          | 0          |   0.0 |  0.00
Output  | 0          | 0          | 0          |   0.0 |  0.00
Modify  | 0          | 0          | 0          |   0.0 |  0.00
Other   |            | 9.438e-06  |            |       |100.00

Nlocal:             36 ave          36 max          36 min
Histogram: 1 0 0 0 0 0 0 0 0 0
Nghost:           2700 ave        2700 max        2700 min
Histogram: 1 0 0 0 0 0 0 0 0 0
Neighs:              0 ave           0 max           0 min
Histogram: 1 0 0 0 0 0 0 0 0 0
FullNghs:        22200 ave       22200 max       22200 min
Histogram: 1 0 0 0 0 0 0 0 0 0

Total # of neighbors = 22200
Ave neighs/atom = 616.66667
Neighbor list builds = 0
Dangerous builds = 0
set atom * x 0.0 y 0.0 z 0.0
Setting atom values ...
  36 settings made for x
  36 settings made for y
  36 settings made for z
change_box all     x final 0 8.361040352955834 y final 0 8.149969826494292 z final 0 4.088473522093667      xy final -3.601281016521607e-08 xz final 9.104458918088152e-10 yz final -6.160894006405878e-09 units box
Changing box ...
  triclinic box = (0 0 0) to (8.3610404 8.151045 4.0889066) with tilt (-2.6813392e-08 -1.3396226e-10 -4.4328495e-09)
  triclinic box = (0 0 0) to (8.3610404 8.1499698 4.0889066) with tilt (-2.6813392e-08 -1.3396226e-10 -4.4328495e-09)
  triclinic box = (0 0 0) to (8.3610404 8.1499698 4.0884735) with tilt (-2.6813392e-08 -1.3396226e-10 -4.4328495e-09)
  triclinic box = (0 0 0) to (8.3610404 8.1499698 4.0884735) with tilt (-3.601281e-08 -1.3396226e-10 -4.4328495e-09)
  triclinic box = (0 0 0) to (8.3610404 8.1499698 4.0884735) with tilt (-3.601281e-08 9.1044589e-10 -4.4328495e-09)
  triclinic box = (0 0 0) to (8.3610404 8.1499698 4.0884735) with tilt (-3.601281e-08 9.1044589e-10 -6.160894e-09)
echo none
run 0
WARNING: No fixes with time integration, atoms won't move (src/verlet.cpp:60)
### NNP EW SUMMARY ### TS:          0 EW          0 EWPERSTEP  0.000e+00
Per MPI rank memory allocation (min/avg/max) = 5.691 | 5.691 | 5.691 Mbytes
    PotEng          Pxx           E_mol          E_coul    
-5634.9249     -5689.8203      0              0            
Loop time of 1.1624e-05 on 4 procs for 0 steps with 36 atoms

154.9% CPU use with 1 MPI tasks x 4 OpenMP threads

MPI task timing breakdown:
Section |  min time  |  avg time  |  max time  |%varavg| %total
---------------------------------------------------------------
Pair    | 0          | 0          | 0          |   0.0 |  0.00
Neigh   | 0          | 0          | 0          |   0.0 |  0.00
Comm    | 0          | 0          | 0          |   0.0 |  0.00
Output  | 0          | 0          | 0          |   0.0 |  0.00
Modify  | 0          | 0          | 0          |   0.0 |  0.00
Other   |            | 1.162e-05  |            |       |100.00

Nlocal:             36 ave          36 max          36 min
Histogram: 1 0 0 0 0 0 0 0 0 0
Nghost:           2700 ave        2700 max        2700 min
Histogram: 1 0 0 0 0 0 0 0 0 0
Neighs:              0 ave           0 max           0 min
Histogram: 1 0 0 0 0 0 0 0 0 0
FullNghs:        22208 ave       22208 max       22208 min
Histogram: 1 0 0 0 0 0 0 0 0 0

Total # of neighbors = 22208
Ave neighs/atom = 616.88889
Neighbor list builds = 0
Dangerous builds = 0
set atom * x 0.0 y 0.0 z 0.0
Setting atom values ...
  36 settings made for x
  36 settings made for y
  36 settings made for z
change_box all     x final 0 8.359469132793 y final 0 8.148426336181656 z final 0 4.087840956585703      xy final -4.486398222269733e-08 xz final 2.7634945279022655e-09 yz final -7.621999030019399e-09 units box
Changing box ...
  triclinic box = (0 0 0) to (8.3594691 8.1499698 4.0884735) with tilt (-3.601281e-08 9.1044589e-10 -6.160894e-09)
  triclinic box = (0 0 0) to (8.3594691 8.1484263 4.0884735) with tilt (-3.601281e-08 9.1044589e-10 -6.160894e-09)
  triclinic box = (0 0 0) to (8.3594691 8.1484263 4.087841) with tilt (-3.601281e-08 9.1044589e-10 -6.160894e-09)
  triclinic box = (0 0 0) to (8.3594691 8.1484263 4.087841) with tilt (-4.4863982e-08 9.1044589e-10 -6.160894e-09)
  triclinic box = (0 0 0) to (8.3594691 8.1484263 4.087841) with tilt (-4.4863982e-08 2.7634945e-09 -6.160894e-09)
  triclinic box = (0 0 0) to (8.3594691 8.1484263 4.087841) with tilt (-4.4863982e-08 2.7634945e-09 -7.621999e-09)
echo none
run 0
WARNING: No fixes with time integration, atoms won't move (src/verlet.cpp:60)
### NNP EW SUMMARY ### TS:          0 EW          0 EWPERSTEP  0.000e+00
Per MPI rank memory allocation (min/avg/max) = 5.691 | 5.691 | 5.691 Mbytes
    PotEng          Pxx           E_mol          E_coul    
-5634.9266     -5592.9596      0              0            
Loop time of 8.583e-06 on 4 procs for 0 steps with 36 atoms

209.7% CPU use with 1 MPI tasks x 4 OpenMP threads

MPI task timing breakdown:
Section |  min time  |  avg time  |  max time  |%varavg| %total
---------------------------------------------------------------
Pair    | 0          | 0          | 0          |   0.0 |  0.00
Neigh   | 0          | 0          | 0          |   0.0 |  0.00
Comm    | 0          | 0          | 0          |   0.0 |  0.00
Output  | 0          | 0          | 0          |   0.0 |  0.00
Modify  | 0          | 0          | 0          |   0.0 |  0.00
Other   |            | 8.583e-06  |            |       |100.00

Nlocal:             36 ave          36 max          36 min
Histogram: 1 0 0 0 0 0 0 0 0 0
Nghost:           2700 ave        2700 max        2700 min
Histogram: 1 0 0 0 0 0 0 0 0 0
Neighs:              0 ave           0 max           0 min
Histogram: 1 0 0 0 0 0 0 0 0 0
FullNghs:        22248 ave       22248 max       22248 min
Histogram: 1 0 0 0 0 0 0 0 0 0

Total # of neighbors = 22248
Ave neighs/atom = 618
Neighbor list builds = 0
Dangerous builds = 0
set atom * x 0.0 y 0.0 z 0.0
Setting atom values ...
  36 settings made for x
  36 settings made for y
  36 settings made for z
change_box all     x final 0 8.357838601577647 y final 0 8.146839503038514 z final 0 4.08717785381526      xy final -4.3917482990589736e-08 xz final 4.5654783138121594e-09 yz final -6.101970293912118e-09 units box
Changing box ...
  triclinic box = (0 0 0) to (8.3578386 8.1484263 4.087841) with tilt (-4.4863982e-08 2.7634945e-09 -7.621999e-09)
  triclinic box = (0 0 0) to (8.3578386 8.1468395 4.087841) with tilt (-4.4863982e-08 2.7634945e-09 -7.621999e-09)
  triclinic box = (0 0 0) to (8.3578386 8.1468395 4.0871779) with tilt (-4.4863982e-08 2.7634945e-09 -7.621999e-09)
  triclinic box = (0 0 0) to (8.3578386 8.1468395 4.0871779) with tilt (-4.3917483e-08 2.7634945e-09 -7.621999e-09)
  triclinic box = (0 0 0) to (8.3578386 8.1468395 4.0871779) with tilt (-4.3917483e-08 4.5654783e-09 -7.621999e-09)
  triclinic box = (0 0 0) to (8.3578386 8.1468395 4.0871779) with tilt (-4.3917483e-08 4.5654783e-09 -6.1019703e-09)
echo none
run 0
WARNING: No fixes with time integration, atoms won't move (src/verlet.cpp:60)
### NNP EW SUMMARY ### TS:          0 EW          0 EWPERSTEP  0.000e+00
Per MPI rank memory allocation (min/avg/max) = 5.691 | 5.691 | 5.691 Mbytes
    PotEng          Pxx           E_mol          E_coul    
-5634.9282     -5548.1077      0              0            
Loop time of 8.559e-06 on 4 procs for 0 steps with 36 atoms

0.0% CPU use with 1 MPI tasks x 4 OpenMP threads

MPI task timing breakdown:
Section |  min time  |  avg time  |  max time  |%varavg| %total
---------------------------------------------------------------
Pair    | 0          | 0          | 0          |   0.0 |  0.00
Neigh   | 0          | 0          | 0          |   0.0 |  0.00
Comm    | 0          | 0          | 0          |   0.0 |  0.00
Output  | 0          | 0          | 0          |   0.0 |  0.00
Modify  | 0          | 0          | 0          |   0.0 |  0.00
Other   |            | 8.559e-06  |            |       |100.00

Nlocal:             36 ave          36 max          36 min
Histogram: 1 0 0 0 0 0 0 0 0 0
Nghost:           2700 ave        2700 max        2700 min
Histogram: 1 0 0 0 0 0 0 0 0 0
Neighs:              0 ave           0 max           0 min
Histogram: 1 0 0 0 0 0 0 0 0 0
FullNghs:        22224 ave       22224 max       22224 min
Histogram: 1 0 0 0 0 0 0 0 0 0

Total # of neighbors = 22224
Ave neighs/atom = 617.33333
Neighbor list builds = 0
Dangerous builds = 0
set atom * x 0.0 y 0.0 z 0.0
Setting atom values ...
  36 settings made for x
  36 settings made for y
  36 settings made for z
change_box all     x final 0 8.356704701656051 y final 0 8.14575318821638 z final 0 4.086710801311569      xy final -4.164862610140612e-08 xz final 4.371176460733167e-09 yz final -4.244438552988588e-09 units box
Changing box ...
  triclinic box = (0 0 0) to (8.3567047 8.1468395 4.0871779) with tilt (-4.3917483e-08 4.5654783e-09 -6.1019703e-09)
  triclinic box = (0 0 0) to (8.3567047 8.1457532 4.0871779) with tilt (-4.3917483e-08 4.5654783e-09 -6.1019703e-09)
  triclinic box = (0 0 0) to (8.3567047 8.1457532 4.0867108) with tilt (-4.3917483e-08 4.5654783e-09 -6.1019703e-09)
  triclinic box = (0 0 0) to (8.3567047 8.1457532 4.0867108) with tilt (-4.1648626e-08 4.5654783e-09 -6.1019703e-09)
  triclinic box = (0 0 0) to (8.3567047 8.1457532 4.0867108) with tilt (-4.1648626e-08 4.3711765e-09 -6.1019703e-09)
  triclinic box = (0 0 0) to (8.3567047 8.1457532 4.0867108) with tilt (-4.1648626e-08 4.3711765e-09 -4.2444386e-09)
echo none
run 0
WARNING: No fixes with time integration, atoms won't move (src/verlet.cpp:60)
### NNP EW SUMMARY ### TS:          0 EW          0 EWPERSTEP  0.000e+00
Per MPI rank memory allocation (min/avg/max) = 5.691 | 5.691 | 5.691 Mbytes
    PotEng          Pxx           E_mol          E_coul    
-5634.9291     -5545.8889      0              0            
Loop time of 9.075e-06 on 4 procs for 0 steps with 36 atoms

0.0% CPU use with 1 MPI tasks x 4 OpenMP threads

MPI task timing breakdown:
Section |  min time  |  avg time  |  max time  |%varavg| %total
---------------------------------------------------------------
Pair    | 0          | 0          | 0          |   0.0 |  0.00
Neigh   | 0          | 0          | 0          |   0.0 |  0.00
Comm    | 0          | 0          | 0          |   0.0 |  0.00
Output  | 0          | 0          | 0          |   0.0 |  0.00
Modify  | 0          | 0          | 0          |   0.0 |  0.00
Other   |            | 9.075e-06  |            |       |100.00

Nlocal:             36 ave          36 max          36 min
Histogram: 1 0 0 0 0 0 0 0 0 0
Nghost:           2700 ave        2700 max        2700 min
Histogram: 1 0 0 0 0 0 0 0 0 0
Neighs:              0 ave           0 max           0 min
Histogram: 1 0 0 0 0 0 0 0 0 0
FullNghs:        22240 ave       22240 max       22240 min
Histogram: 1 0 0 0 0 0 0 0 0 0

Total # of neighbors = 22240
Ave neighs/atom = 617.77778
Neighbor list builds = 0
Dangerous builds = 0
set atom * x 0.0 y 0.0 z 0.0
Setting atom values ...
  36 settings made for x
  36 settings made for y
  36 settings made for z
[...]
Histogram: 1 0 0 0 0 0 0 0 0 0
Neighs:              0 ave           0 max           0 min
Histogram: 1 0 0 0 0 0 0 0 0 0
FullNghs:        23048 ave       23048 max       23048 min
Histogram: 1 0 0 0 0 0 0 0 0 0

Total # of neighbors = 23048
Ave neighs/atom = 640.22222
Neighbor list builds = 0
Dangerous builds = 0
set atom * x 0.0 y 0.0 z 0.0
Setting atom values ...
  36 settings made for x
  36 settings made for y
  36 settings made for z
change_box all     x final 0 8.200131450566726 y final 0 8.047188215100945 z final 0 4.058764149179403      xy final -5.736547994702439e-07 xz final -2.970320892040592e-07 yz final 8.153406906467346e-08 units box
Changing box ...
  triclinic box = (0 0 0) to (8.2001315 8.0471567 4.0587731) with tilt (-4.3415519e-07 -2.2290989e-07 4.8575016e-08)
  triclinic box = (0 0 0) to (8.2001315 8.0471882 4.0587731) with tilt (-4.3415519e-07 -2.2290989e-07 4.8575016e-08)
  triclinic box = (0 0 0) to (8.2001315 8.0471882 4.0587641) with tilt (-4.3415519e-07 -2.2290989e-07 4.8575016e-08)
  triclinic box = (0 0 0) to (8.2001315 8.0471882 4.0587641) with tilt (-5.736548e-07 -2.2290989e-07 4.8575016e-08)
  triclinic box = (0 0 0) to (8.2001315 8.0471882 4.0587641) with tilt (-5.736548e-07 -2.9703209e-07 4.8575016e-08)
  triclinic box = (0 0 0) to (8.2001315 8.0471882 4.0587641) with tilt (-5.736548e-07 -2.9703209e-07 8.1534069e-08)
echo none
run 0
### NNP EW SUMMARY ### TS:          0 EW          0 EWPERSTEP  0.000e+00
Per MPI rank memory allocation (min/avg/max) = 5.692 | 5.692 | 5.692 Mbytes
    PotEng          Pxx           E_mol          E_coul    
-5634.9565     -2.9900512      0              0            
Loop time of 8.383e-06 on 4 procs for 0 steps with 36 atoms

155.1% CPU use with 1 MPI tasks x 4 OpenMP threads

MPI task timing breakdown:
Section |  min time  |  avg time  |  max time  |%varavg| %total
---------------------------------------------------------------
Pair    | 0          | 0          | 0          |   0.0 |  0.00
Neigh   | 0          | 0          | 0          |   0.0 |  0.00
Comm    | 0          | 0          | 0          |   0.0 |  0.00
Output  | 0          | 0          | 0          |   0.0 |  0.00
Modify  | 0          | 0          | 0          |   0.0 |  0.00
Other   |            | 8.383e-06  |            |       |100.00

Nlocal:             36 ave          36 max          36 min
Histogram: 1 0 0 0 0 0 0 0 0 0
Nghost:           2788 ave        2788 max        2788 min
Histogram: 1 0 0 0 0 0 0 0 0 0
Neighs:              0 ave           0 max           0 min
Histogram: 1 0 0 0 0 0 0 0 0 0
FullNghs:        23048 ave       23048 max       23048 min
Histogram: 1 0 0 0 0 0 0 0 0 0

Total # of neighbors = 23048
Ave neighs/atom = 640.22222
Neighbor list builds = 0
Dangerous builds = 0
set atom * x 0.0 y 0.0 z 0.0
Setting atom values ...
  36 settings made for x
  36 settings made for y
  36 settings made for z
change_box all     x final 0 8.200124989879974 y final 0 8.04721181550072 z final 0 4.058756901676617      xy final -6.315558637854819e-07 xz final -3.2122346096605057e-07 yz final 1.0071058468527376e-07 units box
Changing box ...
  triclinic box = (0 0 0) to (8.200125 8.0471882 4.0587641) with tilt (-5.736548e-07 -2.9703209e-07 8.1534069e-08)
  triclinic box = (0 0 0) to (8.200125 8.0472118 4.0587641) with tilt (-5.736548e-07 -2.9703209e-07 8.1534069e-08)
  triclinic box = (0 0 0) to (8.200125 8.0472118 4.0587569) with tilt (-5.736548e-07 -2.9703209e-07 8.1534069e-08)
  triclinic box = (0 0 0) to (8.200125 8.0472118 4.0587569) with tilt (-6.3155586e-07 -2.9703209e-07 8.1534069e-08)
  triclinic box = (0 0 0) to (8.200125 8.0472118 4.0587569) with tilt (-6.3155586e-07 -3.2122346e-07 8.1534069e-08)
  triclinic box = (0 0 0) to (8.200125 8.0472118 4.0587569) with tilt (-6.3155586e-07 -3.2122346e-07 1.0071058e-07)
echo none
run 0
### NNP EW SUMMARY ### TS:          0 EW          0 EWPERSTEP  0.000e+00
Per MPI rank memory allocation (min/avg/max) = 5.692 | 5.692 | 5.692 Mbytes
    PotEng          Pxx           E_mol          E_coul    
-5634.9565     -2.9105815      0              0            
Loop time of 8.681e-06 on 4 procs for 0 steps with 36 atoms

149.8% CPU use with 1 MPI tasks x 4 OpenMP threads

MPI task timing breakdown:
Section |  min time  |  avg time  |  max time  |%varavg| %total
---------------------------------------------------------------
Pair    | 0          | 0          | 0          |   0.0 |  0.00
Neigh   | 0          | 0          | 0          |   0.0 |  0.00
Comm    | 0          | 0          | 0          |   0.0 |  0.00
Output  | 0          | 0          | 0          |   0.0 |  0.00
Modify  | 0          | 0          | 0          |   0.0 |  0.00
Other   |            | 8.681e-06  |            |       |100.00

Nlocal:             36 ave          36 max          36 min
Histogram: 1 0 0 0 0 0 0 0 0 0
Nghost:           2788 ave        2788 max        2788 min
Histogram: 1 0 0 0 0 0 0 0 0 0
Neighs:              0 ave           0 max           0 min
Histogram: 1 0 0 0 0 0 0 0 0 0
FullNghs:        23048 ave       23048 max       23048 min
Histogram: 1 0 0 0 0 0 0 0 0 0

Total # of neighbors = 23048
Ave neighs/atom = 640.22222
Neighbor list builds = 0
Dangerous builds = 0
set atom * x 0.0 y 0.0 z 0.0
Setting atom values ...
  36 settings made for x
  36 settings made for y
  36 settings made for z
change_box all     x final 0 8.200117524033697 y final 0 8.047237754793748 z final 0 4.058749002921483      xy final -6.339248920715913e-07 xz final -3.104546875238087e-07 yz final 1.0857685386839499e-07 units box
Changing box ...
  triclinic box = (0 0 0) to (8.2001175 8.0472118 4.0587569) with tilt (-6.3155586e-07 -3.2122346e-07 1.0071058e-07)
  triclinic box = (0 0 0) to (8.2001175 8.0472378 4.0587569) with tilt (-6.3155586e-07 -3.2122346e-07 1.0071058e-07)
  triclinic box = (0 0 0) to (8.2001175 8.0472378 4.058749) with tilt (-6.3155586e-07 -3.2122346e-07 1.0071058e-07)
  triclinic box = (0 0 0) to (8.2001175 8.0472378 4.058749) with tilt (-6.3392489e-07 -3.2122346e-07 1.0071058e-07)
  triclinic box = (0 0 0) to (8.2001175 8.0472378 4.058749) with tilt (-6.3392489e-07 -3.1045469e-07 1.0071058e-07)
  triclinic box = (0 0 0) to (8.2001175 8.0472378 4.058749) with tilt (-6.3392489e-07 -3.1045469e-07 1.0857685e-07)
echo none
run 0
### NNP EW SUMMARY ### TS:          0 EW          0 EWPERSTEP  0.000e+00
Per MPI rank memory allocation (min/avg/max) = 5.692 | 5.692 | 5.692 Mbytes
    PotEng          Pxx           E_mol          E_coul    
-5634.9565     -2.8056722      0              0            
Loop time of 8.204e-06 on 4 procs for 0 steps with 36 atoms

182.8% CPU use with 1 MPI tasks x 4 OpenMP threads

MPI task timing breakdown:
Section |  min time  |  avg time  |  max time  |%varavg| %total
---------------------------------------------------------------
Pair    | 0          | 0          | 0          |   0.0 |  0.00
Neigh   | 0          | 0          | 0          |   0.0 |  0.00
Comm    | 0          | 0          | 0          |   0.0 |  0.00
Output  | 0          | 0          | 0          |   0.0 |  0.00
Modify  | 0          | 0          | 0          |   0.0 |  0.00
Other   |            | 8.204e-06  |            |       |100.00

Nlocal:             36 ave          36 max          36 min
Histogram: 1 0 0 0 0 0 0 0 0 0
Nghost:           2788 ave        2788 max        2788 min
Histogram: 1 0 0 0 0 0 0 0 0 0
Neighs:              0 ave           0 max           0 min
Histogram: 1 0 0 0 0 0 0 0 0 0
FullNghs:        23048 ave       23048 max       23048 min
Histogram: 1 0 0 0 0 0 0 0 0 0

Total # of neighbors = 23048
Ave neighs/atom = 640.22222
Neighbor list builds = 0
Dangerous builds = 0
set atom * x 0.0 y 0.0 z 0.0
Setting atom values ...
  36 settings made for x
  36 settings made for y
  36 settings made for z
change_box all     x final 0 8.200100635610962 y final 0 8.047280187656094 z final 0 4.05873690479961      xy final -5.791164827113596e-07 xz final -2.5240044314082296e-07 yz final 1.0062032877689888e-07 units box
Changing box ...
  triclinic box = (0 0 0) to (8.2001006 8.0472378 4.058749) with tilt (-6.3392489e-07 -3.1045469e-07 1.0857685e-07)
  triclinic box = (0 0 0) to (8.2001006 8.0472802 4.058749) with tilt (-6.3392489e-07 -3.1045469e-07 1.0857685e-07)
  triclinic box = (0 0 0) to (8.2001006 8.0472802 4.0587369) with tilt (-6.3392489e-07 -3.1045469e-07 1.0857685e-07)
  triclinic box = (0 0 0) to (8.2001006 8.0472802 4.0587369) with tilt (-5.7911648e-07 -3.1045469e-07 1.0857685e-07)
  triclinic box = (0 0 0) to (8.2001006 8.0472802 4.0587369) with tilt (-5.7911648e-07 -2.5240044e-07 1.0857685e-07)
  triclinic box = (0 0 0) to (8.2001006 8.0472802 4.0587369) with tilt (-5.7911648e-07 -2.5240044e-07 1.0062033e-07)
echo none
run 0
### NNP EW SUMMARY ### TS:          0 EW          0 EWPERSTEP  0.000e+00
Per MPI rank memory allocation (min/avg/max) = 5.692 | 5.692 | 5.692 Mbytes
    PotEng          Pxx           E_mol          E_coul    
-5634.9565     -2.487567       0              0            
Loop time of 7.781e-06 on 4 procs for 0 steps with 36 atoms

179.9% CPU use with 1 MPI tasks x 4 OpenMP threads

MPI task timing breakdown:
Section |  min time  |  avg time  |  max time  |%varavg| %total
---------------------------------------------------------------
Pair    | 0          | 0          | 0          |   0.0 |  0.00
Neigh   | 0          | 0          | 0          |   0.0 |  0.00
Comm    | 0          | 0          | 0          |   0.0 |  0.00
Output  | 0          | 0          | 0          |   0.0 |  0.00
Modify  | 0          | 0          | 0          |   0.0 |  0.00
Other   |            | 7.781e-06  |            |       |100.00

Nlocal:             36 ave          36 max          36 min
Histogram: 1 0 0 0 0 0 0 0 0 0
Nghost:           2788 ave        2788 max        2788 min
Histogram: 1 0 0 0 0 0 0 0 0 0
Neighs:              0 ave           0 max           0 min
Histogram: 1 0 0 0 0 0 0 0 0 0
FullNghs:        23048 ave       23048 max       23048 min
Histogram: 1 0 0 0 0 0 0 0 0 0

Total # of neighbors = 23048
Ave neighs/atom = 640.22222
Neighbor list builds = 0
Dangerous builds = 0
set atom * x 0.0 y 0.0 z 0.0
Setting atom values ...
  36 settings made for x
  36 settings made for y
  36 settings made for z
change_box all     x final 0 8.200067900487396 y final 0 8.04734185678836 z final 0 4.05872076315517      xy final -4.4262510345115776e-07 xz final -1.297348675834014e-07 yz final 6.710024331332974e-08 units box
Changing box ...
  triclinic box = (0 0 0) to (8.2000679 8.0472802 4.0587369) with tilt (-5.7911648e-07 -2.5240044e-07 1.0062033e-07)
  triclinic box = (0 0 0) to (8.2000679 8.0473419 4.0587369) with tilt (-5.7911648e-07 -2.5240044e-07 1.0062033e-07)
  triclinic box = (0 0 0) to (8.2000679 8.0473419 4.0587208) with tilt (-5.7911648e-07 -2.5240044e-07 1.0062033e-07)
  triclinic box = (0 0 0) to (8.2000679 8.0473419 4.0587208) with tilt (-4.426251e-07 -2.5240044e-07 1.0062033e-07)
  triclinic box = (0 0 0) to (8.2000679 8.0473419 4.0587208) with tilt (-4.426251e-07 -1.2973487e-07 1.0062033e-07)
  triclinic box = (0 0 0) to (8.2000679 8.0473419 4.0587208) with tilt (-4.426251e-07 -1.2973487e-07 6.7100243e-08)
echo none
run 0
### NNP EW SUMMARY ### TS:          0 EW          0 EWPERSTEP  0.000e+00
Per MPI rank memory allocation (min/avg/max) = 5.692 | 5.692 | 5.692 Mbytes
    PotEng          Pxx           E_mol          E_coul    
-5634.9565     -1.7793786      0              0            
Loop time of 1.0126e-05 on 4 procs for 0 steps with 36 atoms

148.1% CPU use with 1 MPI tasks x 4 OpenMP threads

MPI task timing breakdown:
Section |  min time  |  avg time  |  max time  |%varavg| %total
---------------------------------------------------------------
Pair    | 0          | 0          | 0          |   0.0 |  0.00
Neigh   | 0          | 0          | 0          |   0.0 |  0.00
Comm    | 0          | 0          | 0          |   0.0 |  0.00
Output  | 0          | 0          | 0          |   0.0 |  0.00
Modify  | 0          | 0          | 0          |   0.0 |  0.00
Other   |            | 1.013e-05  |            |       |100.00

Nlocal:             36 ave          36 max          36 min
Histogram: 1 0 0 0 0 0 0 0 0 0
Nghost:           2788 ave        2788 max        2788 min
Histogram: 1 0 0 0 0 0 0 0 0 0
Neighs:              0 ave           0 max           0 min
Histogram: 1 0 0 0 0 0 0 0 0 0
FullNghs:        23048 ave       23048 max       23048 min
Histogram: 1 0 0 0 0 0 0 0 0 0

Total # of neighbors = 23048
Ave neighs/atom = 640.22222
Neighbor list builds = 0
Dangerous builds = 0
set atom * x 0.0 y 0.0 z 0.0
Setting atom values ...
  36 settings made for x
  36 settings made for y
  36 settings made for z
change_box all     x final 0 8.200029742659396 y final 0 8.04739606515497 z final 0 4.058708220866823      xy final -2.767330950056027e-07 xz final 1.0849386869713233e-08 yz final 1.598948273151897e-08 units box
Changing box ...
  triclinic box = (0 0 0) to (8.2000297 8.0473419 4.0587208) with tilt (-4.426251e-07 -1.2973487e-07 6.7100243e-08)
  triclinic box = (0 0 0) to (8.2000297 8.0473961 4.0587208) with tilt (-4.426251e-07 -1.2973487e-07 6.7100243e-08)
  triclinic box = (0 0 0) to (8.2000297 8.0473961 4.0587082) with tilt (-4.426251e-07 -1.2973487e-07 6.7100243e-08)
  triclinic box = (0 0 0) to (8.2000297 8.0473961 4.0587082) with tilt (-2.767331e-07 -1.2973487e-07 6.7100243e-08)
  triclinic box = (0 0 0) to (8.2000297 8.0473961 4.0587082) with tilt (-2.767331e-07 1.0849387e-08 6.7100243e-08)
  triclinic box = (0 0 0) to (8.2000297 8.0473961 4.0587082) with tilt (-2.767331e-07 1.0849387e-08 1.5989483e-08)
echo none
run 0
### NNP EW SUMMARY ### TS:          0 EW          0 EWPERSTEP  0.000e+00
Per MPI rank memory allocation (min/avg/max) = 5.692 | 5.692 | 5.692 Mbytes
    PotEng          Pxx           E_mol          E_coul    
-5634.9565     -0.87150163     0              0            
Loop time of 6.287e-06 on 4 procs for 0 steps with 36 atoms

222.7% CPU use with 1 MPI tasks x 4 OpenMP threads

MPI task timing breakdown:
Section |  min time  |  avg time  |  max time  |%varavg| %total
---------------------------------------------------------------
Pair    | 0          | 0          | 0          |   0.0 |  0.00
Neigh   | 0          | 0          | 0          |   0.0 |  0.00
Comm    | 0          | 0          | 0          |   0.0 |  0.00
Output  | 0          | 0          | 0          |   0.0 |  0.00
Modify  | 0          | 0          | 0          |   0.0 |  0.00
Other   |            | 6.287e-06  |            |       |100.00

Nlocal:             36 ave          36 max          36 min
Histogram: 1 0 0 0 0 0 0 0 0 0
Nghost:           2788 ave        2788 max        2788 min
Histogram: 1 0 0 0 0 0 0 0 0 0
Neighs:              0 ave           0 max           0 min
Histogram: 1 0 0 0 0 0 0 0 0 0
FullNghs:        23048 ave       23048 max       23048 min
Histogram: 1 0 0 0 0 0 0 0 0 0

Total # of neighbors = 23048
Ave neighs/atom = 640.22222
Neighbor list builds = 0
Dangerous builds = 0
set atom * x 0.0 y 0.0 z 0.0
Setting atom values ...
  36 settings made for x
  36 settings made for y
  36 settings made for z
change_box all     x final 0 8.200010206441425 y final 0 8.047412312373986 z final 0 4.058705877811195      xy final -1.8186079752233956e-07 xz final 7.704762296624551e-08 yz final -1.5646924712596603e-08 units box
Changing box ...
  triclinic box = (0 0 0) to (8.2000102 8.0473961 4.0587082) with tilt (-2.767331e-07 1.0849387e-08 1.5989483e-08)
  triclinic box = (0 0 0) to (8.2000102 8.0474123 4.0587082) with tilt (-2.767331e-07 1.0849387e-08 1.5989483e-08)
  triclinic box = (0 0 0) to (8.2000102 8.0474123 4.0587059) with tilt (-2.767331e-07 1.0849387e-08 1.5989483e-08)
  triclinic box = (0 0 0) to (8.2000102 8.0474123 4.0587059) with tilt (-1.818608e-07 1.0849387e-08 1.5989483e-08)
  triclinic box = (0 0 0) to (8.2000102 8.0474123 4.0587059) with tilt (-1.818608e-07 7.7047623e-08 1.5989483e-08)
  triclinic box = (0 0 0) to (8.2000102 8.0474123 4.0587059) with tilt (-1.818608e-07 7.7047623e-08 -1.5646925e-08)
echo none
run 0
### NNP EW SUMMARY ### TS:          0 EW          0 EWPERSTEP  0.000e+00
Per MPI rank memory allocation (min/avg/max) = 5.692 | 5.692 | 5.692 Mbytes
    PotEng          Pxx           E_mol          E_coul    
-5634.9565     -0.35582899     0              0            
Loop time of 7.562e-06 on 4 procs for 0 steps with 36 atoms

171.9% CPU use with 1 MPI tasks x 4 OpenMP threads

MPI task timing breakdown:
Section |  min time  |  avg time  |  max time  |%varavg| %total
---------------------------------------------------------------
Pair    | 0          | 0          | 0          |   0.0 |  0.00
Neigh   | 0          | 0          | 0          |   0.0 |  0.00
Comm    | 0          | 0          | 0          |   0.0 |  0.00
Output  | 0          | 0          | 0          |   0.0 |  0.00
Modify  | 0          | 0          | 0          |   0.0 |  0.00
Other   |            | 7.562e-06  |            |       |100.00

Nlocal:             36 ave          36 max          36 min
Histogram: 1 0 0 0 0 0 0 0 0 0
Nghost:           2788 ave        2788 max        2788 min
Histogram: 1 0 0 0 0 0 0 0 0 0
Neighs:              0 ave           0 max           0 min
Histogram: 1 0 0 0 0 0 0 0 0 0
FullNghs:        23048 ave       23048 max       23048 min
Histogram: 1 0 0 0 0 0 0 0 0 0

Total # of neighbors = 23048
Ave neighs/atom = 640.22222
Neighbor list builds = 0
Dangerous builds = 0
set atom * x 0.0 y 0.0 z 0.0
Setting atom values ...
  36 settings made for x
  36 settings made for y
  36 settings made for z
change_box all     x final 0 8.20000729895626 y final 0 8.047408781218648 z final 0 4.0587076328592255      xy final -1.569069097697649e-07 xz final 8.136839803318737e-08 yz final -2.3371961680562085e-08 units box
Changing box ...
  triclinic box = (0 0 0) to (8.2000073 8.0474123 4.0587059) with tilt (-1.818608e-07 7.7047623e-08 -1.5646925e-08)
  triclinic box = (0 0 0) to (8.2000073 8.0474088 4.0587059) with tilt (-1.818608e-07 7.7047623e-08 -1.5646925e-08)
  triclinic box = (0 0 0) to (8.2000073 8.0474088 4.0587076) with tilt (-1.818608e-07 7.7047623e-08 -1.5646925e-08)
  triclinic box = (0 0 0) to (8.2000073 8.0474088 4.0587076) with tilt (-1.5690691e-07 7.7047623e-08 -1.5646925e-08)
  triclinic box = (0 0 0) to (8.2000073 8.0474088 4.0587076) with tilt (-1.5690691e-07 8.1368398e-08 -1.5646925e-08)
  triclinic box = (0 0 0) to (8.2000073 8.0474088 4.0587076) with tilt (-1.5690691e-07 8.1368398e-08 -2.3371962e-08)
echo none
run 0
### NNP EW SUMMARY ### TS:          0 EW          0 EWPERSTEP  0.000e+00
Per MPI rank memory allocation (min/avg/max) = 5.692 | 5.692 | 5.692 Mbytes
    PotEng          Pxx           E_mol          E_coul    
-5634.9565     -0.24957379     0              0            
Loop time of 6.635e-06 on 4 procs for 0 steps with 36 atoms

195.9% CPU use with 1 MPI tasks x 4 OpenMP threads

MPI task timing breakdown:
Section |  min time  |  avg time  |  max time  |%varavg| %total
---------------------------------------------------------------
Pair    | 0          | 0          | 0          |   0.0 |  0.00
Neigh   | 0          | 0          | 0          |   0.0 |  0.00
Comm    | 0          | 0          | 0          |   0.0 |  0.00
Output  | 0          | 0          | 0          |   0.0 |  0.00
Modify  | 0          | 0          | 0          |   0.0 |  0.00
Other   |            | 6.635e-06  |            |       |100.00

Nlocal:             36 ave          36 max          36 min
Histogram: 1 0 0 0 0 0 0 0 0 0
Nghost:           2788 ave        2788 max        2788 min
Histogram: 1 0 0 0 0 0 0 0 0 0
Neighs:              0 ave           0 max           0 min
Histogram: 1 0 0 0 0 0 0 0 0 0
FullNghs:        23048 ave       23048 max       23048 min
Histogram: 1 0 0 0 0 0 0 0 0 0

Total # of neighbors = 23048
Ave neighs/atom = 640.22222
Neighbor list builds = 0
Dangerous builds = 0
Total wall time: 0:00:22
