288
Lattice="13.026213562034837 -0.014419382093200888 0.00017976441041966766 -0.014645538063026766 12.887808724150272 -0.062226874373278354 0.003900027140766168 -0.06829540549152673 13.816275621701347" Properties=species:S:1:pos:R:3:forces:R:3 energy=-1434.7832722841124 stress="1.5555156641401668e-07 1.261720271433119e-06 -1.0579856837145431e-06 1.261720271433119e-06 -8.968537058579723e-08 -3.4448285615017503e-06 -1.0579856837145431e-06 -3.4448285615017503e-06 -1.2713906729754781e-07" pbc="T T T"
H        1.59784981       2.16691425       1.34193136      -0.00000378       0.00000590      -0.00000524
H        4.90367432       4.26420142       4.75466967      -0.00002610      -0.00000960       0.00000885
H        0.93967176       4.75922131       2.96470019      -0.00000467       0.00003112       0.00002151
H        1.64058824       5.38336106       0.52165242       0.00001195       0.00000956      -0.00000850
H        4.84071239       1.00433302       3.95551774       0.00001695       0.00004591       0.00004025
H        4.18610113       4.87312443       2.30528402       0.00001158      -0.00001270      -0.00000346
H        2.36470752       5.80629898       6.08334296       0.00001846      -0.00000660      -0.00003856
H        4.14545701       0.51523416       2.60266756      -0.00004204       0.00000920      -0.00005450
H        2.76689637       0.87472808       4.35438268       0.00003113       0.00000314      -0.00000909
H        3.72623183       5.46763256       0.89468007       0.00001048       0.00000662      -0.00001661
H        6.47692329       4.25047681       4.78698826       0.00001066      -0.00001242      -0.00000318
H        0.95809054       3.19329693       3.09586455      -0.00000908      -0.00002285       0.00000073
H        5.56521600       3.25630008       6.51953422      -0.00001052      -0.00002249      -0.00001503
H        1.21111387       0.77928554       4.92495622      -0.00001292      -0.00001498       0.00001556
H        5.76727596       1.25219456       5.90420794       0.00000889       0.00008838      -0.00001550
H        2.51513109       1.89561858       6.30681534      -0.00001085      -0.00003340       0.00001786
H        2.57293430       3.44230274       6.82101847      -0.00001157       0.00003686       0.00003135
H        3.92158431       2.86120909       3.34785618      -0.00000608       0.00000881      -0.00001691
H        0.67123667       0.32742985       1.91848102      -0.00001360      -0.00001017      -0.00000865
H        2.81216051       3.95254743       3.69380427       0.00001732       0.00000372       0.00000485
H        0.02395747       2.21544209       1.36375762       0.00001084      -0.00000504       0.00000263
H        4.42391041       2.43867721       0.30867048      -0.00001575       0.00000711       0.00003621
H        6.06678405       5.66883901       1.54774441      -0.00000088      -0.00001373      -0.00000385
H        5.82694588       6.16313004       5.32331516       0.00000533      -0.00000364       0.00000655
O        0.81223460       1.98605415       1.94858237       0.00000628       0.00001484       0.00000483
O        5.67833062       4.47122856       5.36193488      -0.00000281      -0.00000377      -0.00001915
O        1.13871711       4.02813893       3.63094363       0.00001240      -0.00000671      -0.00002302
O        5.41714020       2.46195545       0.16388240      -0.00001663      -0.00000228      -0.00001736
O        2.40683573       5.16092584      -0.08987040       0.00000695      -0.00000687      -0.00000396
O        4.06657074       1.19343624       3.33928435      -0.00000220      -0.00003889       0.00001414
O        2.18071571       0.74629434       5.15965846      -0.00000198      -0.00000566      -0.00002229
O        4.40053085       5.58798725       1.63015698      -0.00002075       0.00001419       0.00001480
O        2.73904869       2.52511461       0.18002456       0.00002274       0.00000704      -0.00000163
O        3.80138788       3.83619163       3.55482846       0.00001848       0.00000109       0.00002426
O        0.53813912       5.78711883       1.71695771      -0.00001718      -0.00001447       0.00002847
O        5.99954772       0.67924690       5.11147366      -0.00001135      -0.00001286       0.00004284
H        1.59979933       2.13276613       8.25006878       0.00001118       0.00000980       0.00000238
H        4.90562061       4.23005497      11.66280802       0.00002296      -0.00002304       0.00000045
H        0.94162164       4.72507484       9.87283798      -0.00000955       0.00001192       0.00001756
H        1.64253971       5.34921569       7.42978872      -0.00000210      -0.00001713       0.00002042
H        4.84266596       0.97019299      10.86365795      -0.00001519      -0.00002991      -0.00001820
H        4.18805192       4.83897626       9.21342168       0.00000711      -0.00000913      -0.00000351
H        2.36665865       5.77215226      12.99147853       0.00000036      -0.00001570      -0.00000745
H        4.14740362       0.48108862       9.51079792       0.00000870      -0.00000129       0.00004007
H        2.76885044       0.84057907      11.26251668      -0.00002163       0.00000818       0.00001139
H        3.72818243       5.43348504       7.80281736       0.00000608       0.00000350      -0.00001077
H        6.47887643       4.21633074      11.69512709      -0.00003363      -0.00003320      -0.00001935
H        0.96004015       3.15914727      10.00400161      -0.00000957       0.00000146       0.00000065
H        5.56716389       3.22215038      13.42767155       0.00001294       0.00000143      -0.00001051
H        1.21306170       0.74513238      11.83309671       0.00002379       0.00001875      -0.00002587
H        5.76922347       1.21805433      12.81234369       0.00001961      -0.00000796       0.00000974
H        2.51708070       1.86146619      13.21495399      -0.00001157       0.00001924       0.00000769
H        2.57488191       3.40815696      13.72915744      -0.00000290       0.00000424       0.00000468
H        3.92353559       2.82706254      10.25599185      -0.00002016      -0.00000016      -0.00000186
H        0.67318739       0.29328298       8.82661649      -0.00002612      -0.00002096       0.00001051
H        2.81411067       3.91840002      10.60194167       0.00001446      -0.00000479       0.00000607
H        0.02591041       2.18129517       8.27189580      -0.00001817      -0.00000787      -0.00000016
H        4.42585950       2.40453113       7.21681030      -0.00000160       0.00000672       0.00000932
H        6.06873496       5.63469183       8.45588090      -0.00000660      -0.00001997       0.00000943
H        5.82889777       6.12897962      12.23145058      -0.00001978       0.00004058       0.00004360
O        0.81418554       1.95190740       8.85672179      -0.00000162       0.00000130      -0.00001991
O        5.68028000       4.43707679      12.27007186       0.00000395       0.00003252      -0.00000058
O        1.14066600       3.99399042      10.53907972       0.00002429       0.00000017      -0.00000526
O        5.41908815       2.42780516       7.07201325       0.00000506       0.00000487       0.00003373
O        2.40878580       5.12677548       6.81826687      -0.00000287       0.00001580      -0.00000368
O        4.06851718       1.15927991      10.24742621       0.00000650       0.00003882      -0.00001451
O        2.18266549       0.71215440      12.06779309       0.00000891      -0.00005731       0.00001521
O        4.40248011       5.55383997       8.53829509      -0.00001125       0.00000863       0.00000888
O        2.74099693       2.49096591       7.08816521       0.00002847       0.00001975      -0.00003257
O        3.80333842       3.80204391      10.46296738       0.00001277       0.00000141       0.00000607
O        0.54008702       5.75297071       8.62509822      -0.00000020      -0.00001057      -0.00000397
O        6.00149813       0.64509689      12.01961645      -0.00000600       0.00001500      -0.00001892
H        1.59052812       8.61081957       1.31081769      -0.00001174      -0.00000119      -0.00000434
H        4.89635013      10.70810644       4.72355553      -0.00001063      -0.00000958       0.00001255
H        0.93234789      11.20313066       2.93358905      -0.00000100      -0.00003440      -0.00000574
H        1.63326652      11.82726460       0.49054146       0.00001227       0.00002302      -0.00003181
H        4.83339168       7.44824151       3.92440836      -0.00000151      -0.00000180      -0.00001998
H        4.17878303      11.31702720       2.27416915      -0.00002251      -0.00000046      -0.00000225
H        2.35738734      12.25020344       6.05222770      -0.00000635      -0.00000889      -0.00001075
H        4.13812983       6.95914102       2.57154956       0.00001192      -0.00000177       0.00001248
H        2.75957578       7.31863442       4.32326742       0.00000536      -0.00000907       0.00000530
H        3.71891023      11.91153661       0.86356299       0.00000568       0.00000855       0.00002535
H        6.46960096      10.69437901       4.75587518       0.00000402       0.00000437      -0.00000975
H        0.95076487       9.63719663       3.06475302       0.00000561       0.00003973      -0.00002682
H        5.55789384       9.70020260       6.48841992      -0.00001719      -0.00000499      -0.00000638
H        1.20379055       7.22318981       4.89384438      -0.00000297      -0.00001467      -0.00000472
H        5.75994986       7.69610371       5.87309299       0.00003040       0.00002475       0.00000301
H        2.50780732       8.33951978       6.27570344      -0.00000383       0.00000846       0.00000234
H        2.56560984       9.88621048       6.78990753      -0.00000201      -0.00000103       0.00000038
H        3.91426002       9.30511524       3.31673791       0.00000444      -0.00000614       0.00001691
H        0.66391192       6.77133479       1.88736880       0.00000264      -0.00001460      -0.00001485
H        2.80483722      10.39645172       3.66268919       0.00001820       0.00000587       0.00001494
H        0.01663495       8.65934790       1.33264652       0.00000950      -0.00001411      -0.00001751
H        4.41658561       8.88258144       0.27755971       0.00000580       0.00002183       0.00000595
H        6.05946449      12.11274392       1.51663312      -0.00002945      -0.00002983      -0.00002520
H        5.81962201      12.60703801       5.29220535       0.00001417      -0.00005027      -0.00004053
O        0.80491311       8.42995680       1.91746802      -0.00000389       0.00002314       0.00000871
O        5.67100785      10.91513565       5.33081916      -0.00000119      -0.00003174       0.00000672
O        1.13139850      10.47204205       3.59982521      -0.00000896       0.00000439       0.00003640
O        5.40981589       8.90586053       0.13276953      -0.00000011      -0.00001284      -0.00001744
O        2.39951145      11.60482883      -0.12098537       0.00001510      -0.00001010       0.00000176
O        4.05924739       7.63733610       3.30817389      -0.00001109       0.00000697      -0.00000176
O        2.17339334       7.19019684       5.12854258      -0.00000337       0.00000318       0.00000175
O        4.39320228      12.03189621       1.59904612       0.00002602      -0.00001150      -0.00000309
O        2.73172889       8.96901953       0.14890945      -0.00000219       0.00000368       0.00001233
O        3.79406648      10.28009465       3.52372366       0.00000725       0.00000636      -0.00003354
O        0.53081433      12.23102279       1.68584599      -0.00000343      -0.00001221       0.00001580
O        5.99222936       7.12314990       5.08036465      -0.00004196       0.00000424      -0.00000979
H        1.59247704       8.57666888       8.21895451       0.00000659       0.00002364       0.00000700
H        4.89830103      10.67395733      11.63169375      -0.00002204      -0.00000060       0.00000899
H        0.93429836      11.16897731       9.84172416      -0.00000164       0.00003214       0.00002161
H        1.63521651      11.79311807       7.39867638       0.00000529       0.00000442       0.00000279
H        4.83534207       7.41409278      10.83254409      -0.00000618       0.00000971       0.00000095
H        4.18073053      11.28287860       9.18230844      -0.00000867       0.00000702      -0.00001159
H        2.35933843      12.21605524      12.96036368      -0.00002057      -0.00000726       0.00001262
H        4.14008097       6.92499195       9.47968813      -0.00000333       0.00000482      -0.00000352
H        2.76152650       7.28448812      11.23140461      -0.00001173      -0.00001845       0.00000388
H        3.72086042      11.87739024       7.77170208       0.00000056      -0.00000645       0.00001054
H        6.47155054      10.66023151      11.66401357       0.00000959       0.00000401      -0.00001130
H        0.95271502       9.60305254       9.97288820       0.00000755      -0.00000994       0.00000338
H        5.55984334       9.66605345      13.39655710      -0.00001514       0.00000870       0.00000572
H        1.20573934       7.18904467      11.80198439       0.00001724      -0.00002733      -0.00003032
H        5.76190345       7.66196176      12.78123085      -0.00000054      -0.00004121       0.00000186
H        2.50975533       8.30537142      13.18384099       0.00000562       0.00001492       0.00000426
H        2.56755962       9.85206331      13.69804725      -0.00000070      -0.00000655      -0.00001694
H        3.91620941       9.27096712      10.22487714       0.00000913      -0.00000646       0.00000206
H        0.66586360       6.73718621       8.79550379      -0.00001281      -0.00000738       0.00000853
H        2.80678775      10.36230407      10.57082701       0.00001333       0.00001013       0.00001589
H        0.01858667       8.62519779       8.24078286      -0.00000890       0.00000570      -0.00000454
H        4.41853661       8.84843319       7.18569634       0.00000130       0.00002474       0.00001078
H        6.06141236      12.07859403       8.42476685      -0.00000568       0.00000253       0.00001743
H        5.82157414      12.57288348      12.20033931      -0.00000748       0.00003154       0.00001441
O        0.80686335       8.39581510       8.82560900      -0.00000446      -0.00002404      -0.00002530
O        5.67295755      10.88098883      12.23895765      -0.00000131      -0.00004163      -0.00000086
O        1.13334701      10.43789444      10.50796646      -0.00000857       0.00000243      -0.00000859
O        5.41176630       8.87171133       7.04090389      -0.00000085      -0.00000746      -0.00000053
O        2.40146275      11.57068083       6.78715320       0.00000210       0.00000097      -0.00000080
O        4.06119760       7.60318920      10.21631013      -0.00000742       0.00000039       0.00000192
O        2.17534301       7.15604386      12.03667832       0.00000467       0.00003198       0.00002171
O        4.39515455      11.99774530       8.50718333       0.00001376       0.00000128      -0.00000543
O        2.73367761       8.93487210       7.05704864       0.00000819       0.00000285       0.00000262
O        3.79601641      10.24594764      10.43185824       0.00000452      -0.00000076      -0.00001440
O        0.53276304      12.19687487       8.59398885       0.00001057      -0.00001484      -0.00002876
O        5.99417131       7.08900255      11.98850220       0.00002629       0.00001012      -0.00002263
H        8.11095760       2.15970661       1.34202187      -0.00000796      -0.00001240      -0.00000784
H       11.41677926       4.25699038       4.75476004       0.00000033       0.00000015       0.00000101
H        7.45277810       4.75201437       2.96479110      -0.00000114      -0.00000140       0.00000612
H        8.15369725       5.37615261       0.52174340       0.00000103       0.00000188      -0.00001482
H       11.35382096       0.99712699       3.95561004      -0.00000132       0.00000738       0.00000053
H       10.69921271       4.86591053       2.30537191      -0.00002241       0.00001690       0.00000762
H        8.87781578       5.79908854       6.08343098       0.00000661      -0.00000360      -0.00001342
H       10.65855989       0.50802523       2.60275476       0.00000200       0.00000883      -0.00001046
H        9.28000057       0.86752006       4.35447040       0.00006318      -0.00000811       0.00000680
H       10.23934133       5.46042160       0.89476828      -0.00000631       0.00001233       0.00000437
H       12.99003208       4.24326552       4.78707931      -0.00001651      -0.00000404      -0.00001829
H        7.47119707       3.18608532       3.09595524      -0.00000632       0.00000418      -0.00001253
H       12.07832240       3.24908858       6.51962426      -0.00000901      -0.00000320      -0.00001341
H        7.72422342       0.77207731       4.92504656      -0.00003871      -0.00002567       0.00001750
H       12.28038204       1.24499295       5.90429705       0.00000908      -0.00001185      -0.00000386
H        9.02823435       1.88840735       6.30690651       0.00001802      -0.00001394       0.00000515
H        9.08603918       3.43509453       6.82111016       0.00000496       0.00002172       0.00001201
H       10.43469007       2.85400175       3.34794490       0.00000787      -0.00001443      -0.00001053
H        7.18434001       0.32021966       1.91857242       0.00002558       0.00000020      -0.00002193
H        9.32526682       3.94533630       3.69389457       0.00001607       0.00002190       0.00000258
H        6.53706484       2.20823360       1.36384929       0.00000997      -0.00001578      -0.00000854
H       10.93701753       2.43146728       0.30875929      -0.00002009       0.00000419       0.00004009
H       12.57989369       5.66162821       1.54783552      -0.00001840      -0.00000797      -0.00000907
H       12.34005422       6.15591461       5.32340251      -0.00001773       0.00006284       0.00004536
O        7.32534249       1.97884106       1.94867137       0.00000237       0.00004348       0.00001597
O       12.19143732       4.46402157       5.36202212      -0.00000175      -0.00002478       0.00001306
O        7.65182640       4.02092891       3.63103099      -0.00000715      -0.00000139       0.00000734
O       11.93024778       2.45474649       0.16397403      -0.00002304      -0.00000567      -0.00003436
O        8.91993999       5.15371250      -0.08978362       0.00002081       0.00001166       0.00001304
O       10.57967714       1.18622363       3.33937565      -0.00001020      -0.00000785       0.00000808
O        8.69382417       0.73908110       5.15974869      -0.00001433       0.00001638      -0.00003569
O       10.91363052       5.58078401       1.63025228       0.00003451      -0.00002909      -0.00002592
O        9.25215823       2.51790582       0.18011334       0.00001051       0.00000020       0.00000950
O       10.31449498       3.82898288       3.55492075       0.00001167      -0.00001318       0.00000931
O        7.05124395       5.77990844       1.71704913      -0.00000531      -0.00000965       0.00001251
O       12.51265498       0.67203513       5.11156881      -0.00000587       0.00001178      -0.00002331
H        8.11290746       2.12555450       8.25015820      -0.00000329       0.00002926       0.00000211
H       11.41873002       4.22284529      11.66289704      -0.00000550      -0.00001451       0.00001117
H        7.45472950       4.71786725       9.87292848      -0.00001433      -0.00002253       0.00000915
H        8.15564659       5.34200417       7.42987934       0.00000154       0.00000186       0.00000868
H       11.35577313       0.96298023      10.86374846      -0.00001531      -0.00000710      -0.00001798
H       10.70115914       4.83176768       9.21351088       0.00000886      -0.00001852       0.00000586
H        8.87976809       5.76494309      12.99156943      -0.00001194      -0.00001825      -0.00001519
H       10.66051120       0.47387871       9.51088931       0.00000238       0.00000095       0.00002520
H        9.28196022       0.83337338      11.26260827      -0.00005206      -0.00001271       0.00000180
H       10.24128839       5.42627537       7.80290721       0.00001251       0.00000692      -0.00001286
H       12.99198164       4.20911949      11.69521629      -0.00001230      -0.00001096      -0.00000694
H        7.47314622       3.15193494      10.00409218      -0.00000578       0.00004192      -0.00001173
H       12.08027039       3.21493955      13.42776043       0.00002218       0.00000977      -0.00000900
H        7.72616648       0.73792748      11.83318780       0.00004673      -0.00000719      -0.00004010
H       12.28233015       1.21084170      12.81243397       0.00002197       0.00002824       0.00000138
H        9.03018705       1.85425691      13.21504435      -0.00000766       0.00002253       0.00000494
H        9.08798919       3.40094947      13.72925042      -0.00000318      -0.00001298      -0.00001896
H       10.43664011       2.81985312      10.25608042       0.00000972      -0.00000798       0.00000706
H        7.18629389       0.28607289       8.82670559      -0.00002032      -0.00001506       0.00002174
H        9.32721888       3.91118967      10.60202965       0.00000232       0.00001088       0.00002392
H        6.53901480       2.17408369       8.27198695       0.00000589       0.00001174      -0.00001242
H       10.93896535       2.39732171       7.21690141       0.00000791       0.00000678      -0.00000261
H       12.58184119       5.62748051       8.45597234       0.00000004      -0.00000419      -0.00000205
H       12.34200222       6.12177438      12.23154546       0.00000645      -0.00002892      -0.00002563
O        7.32729287       1.94470189       8.85681161      -0.00000531      -0.00004472      -0.00002412
O       12.19338742       4.42987117      12.27016184      -0.00000126      -0.00001053       0.00000376
O        7.65377430       3.98678004      10.53916768       0.00002562       0.00000592       0.00002398
O       11.93219479       2.42059515       7.07210435       0.00000707       0.00000830       0.00002200
O        8.92189338       5.11956696       6.81835714      -0.00000598      -0.00000016      -0.00000658
O       10.58162645       1.15207219      10.24751539      -0.00000571       0.00002544      -0.00000987
O        8.69577158       0.70493578      12.06788016       0.00001679      -0.00000337       0.00004488
O       10.91558746       5.54663016       8.53838401      -0.00001713       0.00000920       0.00001767
O        9.25411059       2.48375731       7.08825140      -0.00002283       0.00001054       0.00000256
O       10.31644734       3.79483351      10.46306237      -0.00000366       0.00000013      -0.00002684
O        7.05319365       5.74576030       8.62519089      -0.00000172      -0.00000277      -0.00002122
O       12.51460242       0.63788947      12.01970270       0.00000996      -0.00000566       0.00001689
H        8.10363529       8.60360734       1.31090749      -0.00001228       0.00002026       0.00000082
H       11.40945457      10.70089630       4.72364760       0.00001873      -0.00001074      -0.00000773
H        7.44545404      11.19592008       2.93367823       0.00000797      -0.00002691      -0.00000382
H        8.14637182      11.82005458       0.49062939       0.00002006       0.00002130      -0.00001950
H       11.34649900       7.44103220       3.92449791      -0.00001220      -0.00000981      -0.00001707
H       10.69188623      11.30981957       2.27426153       0.00000114      -0.00001389      -0.00001621
H        8.87049300      12.24299446       6.05231821       0.00000672      -0.00001337      -0.00001851
H       10.65123851       6.95192960       2.57163720       0.00000003       0.00000878       0.00003475
H        9.27268046       7.31142242       4.32335775       0.00003514       0.00000291       0.00000274
H       10.23201579      11.90432827       0.86365468       0.00001205      -0.00000256       0.00000581
H       12.98270991      10.68717002       4.75596612      -0.00002601      -0.00000593      -0.00002270
H        7.46387222       9.62998755       3.06484298       0.00000937       0.00003801      -0.00002764
H       12.07099940       9.69299295       6.48851000      -0.00001035      -0.00000308      -0.00000709
H        7.71689791       7.21597830       4.89393279      -0.00001205      -0.00000567       0.00001396
H       12.27305974       7.68890079       5.87318342       0.00000030      -0.00005731      -0.00000032
H        9.02091227       8.33231100       6.27579275       0.00001273      -0.00000464       0.00000755
H        9.07871496       9.87899862       6.78999669       0.00001202       0.00001937       0.00000782
H       10.42736770       9.29790475       3.31683017      -0.00000364      -0.00000130       0.00000010
H        7.17702044       6.76412381       1.88745652      -0.00000778      -0.00000445       0.00000033
H        9.31794443      10.38924275       3.66278008       0.00001770       0.00000002       0.00000324
H        6.52974143       8.65213660       1.33273556       0.00001688       0.00000277      -0.00000758
H       10.92969360       8.87537491       0.27764849      -0.00000495      -0.00000810       0.00001318
H       12.57256802      12.10553309       1.51672124       0.00000105      -0.00000696      -0.00000259
H       12.33272990      12.59982217       5.29229115      -0.00000226       0.00002556       0.00001918
O        7.31801981       8.42275135       1.91755919      -0.00000039      -0.00001963      -0.00000196
O       12.18411479      10.90792549       5.33090819      -0.00000283      -0.00001922       0.00001920
O        7.64450542      10.46483319       3.59991545      -0.00002250       0.00000139       0.00003816
O       11.92292290       8.89864745       0.13285325      -0.00000212       0.00001249       0.00002665
O        8.91262073      11.59762129      -0.12089306       0.00000340      -0.00001679      -0.00001385
O       10.57235440       7.63012488       3.30826257      -0.00000897       0.00002565       0.00000200
O        8.68649974       7.18299172       5.12863473      -0.00000022      -0.00002195      -0.00002183
O       10.90631455      12.02468126       1.59913282      -0.00001083       0.00001759       0.00001778
O        9.24483688       8.96180936       0.14899986      -0.00001336       0.00000806       0.00001085
O       10.30717278      10.27288607       3.52380831       0.00001168      -0.00000158       0.00000506
O        7.04392403      12.22381286       1.68593161      -0.00003264      -0.00000429       0.00005041
O       12.50532955       7.11593877       5.08045672       0.00002285       0.00002086      -0.00004278
H        8.10558329       8.56946130       8.21904562       0.00001305       0.00000588      -0.00000246
H       11.41140796      10.66674831      11.63178374      -0.00002176      -0.00000983       0.00001363
H        7.44740563      11.16176700       9.84181310       0.00000029       0.00004926       0.00003535
H        8.14832390      11.78590886       7.39876557       0.00000010      -0.00000138       0.00001343
H       11.34844897       7.40688281      10.83263270       0.00000101       0.00002015       0.00001657
H       10.69383643      11.27566990       9.18239748       0.00000488      -0.00000232       0.00000535
H        8.87244344      12.20884556      12.96045396      -0.00000649      -0.00000682       0.00000279
H       10.65318832       6.91778212       9.47978022      -0.00001039       0.00000594      -0.00003075
H        9.27463351       7.27727493      11.23149376      -0.00000772       0.00000559       0.00000934
H       10.23396698      11.87017907       7.77179438       0.00000206       0.00001010      -0.00001707
H       12.98465709      10.65302516      11.66410255       0.00001119      -0.00002391      -0.00000100
H        7.46582355       9.59584512       9.97297770       0.00000248      -0.00003964       0.00000993
H       12.07294781       9.65884650      13.39664872       0.00001179      -0.00001576      -0.00001985
H        7.71884717       7.18183272      11.80207347       0.00000912      -0.00001157      -0.00002284
H       12.27501083       7.65474338      12.78132149       0.00000167       0.00006498      -0.00000963
H        9.02286212       8.29816139      13.18393152       0.00001188       0.00001331       0.00000087
H        9.08066663       9.84485187      13.69813518       0.00000176       0.00000808       0.00000006
H       10.42931824       9.26375713      10.22496968       0.00000285      -0.00000155      -0.00001364
H        7.17896968       6.72997661       8.79559342      -0.00000224      -0.00000415       0.00000874
H        9.31989516      10.35509314      10.57091876       0.00001470       0.00001546       0.00000448
H        6.53169266       8.61798974       8.24087310      -0.00000641      -0.00000713      -0.00000849
H       10.93164256       8.84122510       7.18578801       0.00000972       0.00001319      -0.00000427
H       12.57451826      12.07138479       8.42485638       0.00000373       0.00000425       0.00001760
H       12.33468338      12.56567773      12.20042993      -0.00002110      -0.00000876       0.00000144
O        7.31996933       8.38860145       8.82569724       0.00000094       0.00001381      -0.00001114
O       12.18606408      10.87377344      12.23905003       0.00000225       0.00001521      -0.00002493
O        7.64645378      10.43068560      10.50805704      -0.00000845      -0.00000548      -0.00002129
O       11.92487238       8.86450048       7.04099181       0.00000572       0.00000219       0.00001596