36
Lattice="6.784903 0.0 0.0 0.0 6.784903 0.0 0.0 0.0 6.807916" Properties=species:S:1:pos:R:3:forces:R:3 energy=-179.25238871315068 pbc="T T T"
H       -0.04716815       2.32116199       1.24325577       0.00001441       0.00000236       0.00000255
H        0.76056838       1.12387949       1.90133364       0.00000018       0.00000692       0.00000255
H        2.10477151       2.52760185       0.72405233       0.00001855      -0.00000713       0.00000074
H        1.07128900       3.34528388       2.94523577       0.00000035       0.00001222      -0.00000581
H        2.26857129       4.15302128       3.60331143      -0.00000230      -0.00000662       0.00000865
H        0.86485019       5.49722457       2.42603176       0.00000391       0.00000984       0.00000057
H        5.71361433       3.43961599      -0.45872660      -0.00000350       0.00000711       0.00002186
H        4.51633139       2.63187900       0.19934926       0.00000519       0.00002397       0.00003408
H        5.92005125       1.28767830       5.82998958       0.00000512      -0.00000959       0.00000265
H        3.43961925       5.71361385       7.26663836      -0.00001304       0.00000008       0.00000195
H        2.63188058       4.51633245       6.60856332       0.00001407      -0.00000223      -0.00001568
H        1.28767756       5.92005051       0.97792477      -0.00000384       0.00001097       0.00000604
H        3.34528310       1.07128899       3.86267908       0.00001652       0.00000080       0.00000966
H        4.15302057       2.26857151       3.20460405      -0.00000290      -0.00000355      -0.00000861
H        5.49722533       0.86484915       4.38188207       0.00000375       0.00000861       0.00000981
H        2.52760012       2.10477387      -0.72405339       0.00000181       0.00000441       0.00000366
H        4.46374025       6.83207094       2.16070016       0.00000338      -0.00001409       0.00000845
H        5.66102290       6.02433357       1.50262483      -0.00000360       0.00000595      -0.00000664
H        4.25730291       4.68013045       2.67990510      -0.00000225      -0.00001305      -0.00000037
H        6.83207100       4.46374014       4.64721661      -0.00001371       0.00000326      -0.00001494
H        6.02433429       5.66102374       5.30529044       0.00000162      -0.00000848       0.00000984
H        4.68013024       4.25730252       4.12801095      -0.00001047      -0.00000116      -0.00000236
H        2.32116239      -0.04716879       5.56465863      -0.00000179       0.00001978       0.00000668
H        1.12388026       0.76056931       4.90658266       0.00000288      -0.00000557      -0.00000494
O        0.76800626       2.11488941       1.78505710      -0.00001494      -0.00000671       0.00000730
O        1.27756111       4.16045769       3.48703754       0.00001215      -0.00001700       0.00000180
O        5.50734335       2.62445098       0.08308862      -0.00002047      -0.00001863      -0.00005429
O        2.62444636       5.50734273       6.72483474       0.00000999      -0.00001744       0.00000649
O        4.16045822       1.27756146       3.32087953      -0.00001858       0.00001061      -0.00000835
O        4.67001302       6.01689609       1.61890036       0.00000956       0.00001944      -0.00000821
O        6.01689559       4.67001368       5.18901514       0.00002168       0.00000611       0.00000703
O        2.11488999       0.76800648       5.02285888      -0.00000922      -0.00001761      -0.00001251
O        2.75577405       2.75577113       0.00000093      -0.00001610       0.00000039      -0.00000652
O        0.63668102       6.14822549       1.70197933      -0.00000441      -0.00001838      -0.00000374
O        6.14822407       0.63667976       5.10593668      -0.00000787       0.00000589      -0.00000033
O        4.02913100       4.02913053       3.40395777       0.00000386       0.00000853       0.00000094
