36
Lattice="6.46265432256084 1.1847758646431614e-06 -1.9536331249202404e-07 1.184902001903483e-06 6.462652893798793 -1.6905067584554953e-06 -2.843880865350379e-07 -1.4106758503807252e-06 6.874075656231179" Properties=species:S:1:pos:R:3:forces:R:3 energy=-179.4114775406823 stress="-5.84782744658674e-08 2.3255579885149032e-07 -1.349826534445324e-07 2.3255579885149032e-07 -4.449755569143829e-07 1.67653528949654e-07 -1.349826534445324e-07 1.67653528949654e-07 -2.845693678754646e-07" pbc="T T T"
H       -0.08823073       2.21136816       1.31388144      -0.00001473       0.00000351       0.00003526
H        0.73564474       1.00228751       1.95416469       0.00004305       0.00003918      -0.00001543
H        1.93237067       2.34289360       0.74586792      -0.00003379       0.00000136       0.00003288
H        1.01993330       3.14309009       3.03241901       0.00001259      -0.00000433      -0.00000918
H        2.22900687       3.96700618       3.67266897       0.00001590      -0.00001171      -0.00002085
H        0.88841122       5.16368428       2.46435264       0.00003845      -0.00001291       0.00001940
H        5.44271824       3.31956585      -0.40464105       0.00003167       0.00001348      -0.00000980
H        4.23366359       2.49563793       0.23561279      -0.00009313      -0.00002003      -0.00000076
H        5.57423251       1.29899417       5.90138594       0.00000349      -0.00004844      -0.00000140
H        3.31954959       5.44270371       7.27870126       0.00002004       0.00000590      -0.00001391
H        2.49562498       4.23363505       6.63846419       0.00002111      -0.00003665      -0.00002910
H        1.29897090       5.57424605       0.97265838       0.00001172      -0.00002918       0.00001829
H        3.14311266       1.01995313       3.84166464      -0.00001775       0.00000782      -0.00001558
H        3.96702535       2.22902962       3.20142102      -0.00001660      -0.00002785      -0.00000836
H        5.16370066       0.88841080       4.40969037      -0.00003900       0.00002440       0.00001891
H        2.34286473       1.93235321      -0.74583641       0.00009024       0.00001627      -0.00002664
H        4.25129259       6.55087933       2.12312023      -0.00003782       0.00002231       0.00003649
H        5.46035810       5.72697187       1.48286328      -0.00000296      -0.00001309       0.00000388
H        4.11976797       4.53028937       2.69118977      -0.00000509       0.00001304      -0.00000776
H        6.55089256       4.25127293       4.75095077      -0.00000835       0.00008507      -0.00000945
H        5.72699014       5.46036316       5.39121117       0.00002319      -0.00004239      -0.00005607
H        4.53029930       4.11975631       4.18289288       0.00001904       0.00001650       0.00001137
H        2.21136453      -0.08822694       5.56017806       0.00005279      -0.00001351       0.00001152
H        1.00229586       0.73567115       4.91992285      -0.00001481       0.00004140      -0.00002017
O        0.72451304       2.00226971       1.86684748       0.00005512       0.00004523      -0.00000611
O        1.22902993       3.95586712       3.58534013      -0.00000462      -0.00000002       0.00000597
O        5.23363787       2.50677822       0.14827239      -0.00005729       0.00004116       0.00004142
O        2.50677720       5.23361522       6.72577185      -0.00001314      -0.00001619       0.00001204
O        3.95587880       1.22904733       3.28873047       0.00000858      -0.00003712      -0.00002231
O        4.46037785       5.73810776       1.57019284      -0.00001970       0.00000284       0.00002156
O        5.73813064       4.46038096       5.30388828      -0.00004754      -0.00004596      -0.00000387
O        2.00227642       0.72454315       5.00724887       0.00000690      -0.00000312      -0.00000540
O        2.56828777       2.56828841       0.00000675       0.00000243       0.00000438       0.00002334
O        0.66302913       5.79962899       1.71850835      -0.00003737      -0.00003199       0.00000081
O        5.79962364       0.66302980       5.15555490       0.00003230      -0.00000846      -0.00002766
O        3.89437181       3.89435696       3.43704040      -0.00002491       0.00001912       0.00001668
