240
Lattice="11.999699559007421 -0.09944345123556589 -0.0019574523181441314 -0.08297184963208418 11.982301713523919 -0.06511382264522873 -0.003551310509647278 -0.047684947607323586 11.306057158934049" Properties=species:S:1:pos:R:3:forces:R:3 energy=-1193.1354157992926 stress="1.1454251452099745e-06 1.1985637715796634e-06 -3.6940996362311967e-06 1.1985637715796634e-06 3.214138104955938e-07 -2.156646881598013e-06 -3.6940996362311967e-06 -2.156646881598013e-06 -2.160575803331413e-06" pbc="T T T"
H        1.45690487       2.20058192       1.99571389       0.00000193      -0.00004559       0.00002968
H        1.49213003       0.65498996       1.92456174       0.00000828       0.00003136       0.00000724
H        1.51079286       4.08989340       3.47999696      -0.00003094       0.00001949       0.00001930
H        4.14442267       1.45137050       4.90404430      -0.00000413       0.00001361       0.00000867
H        2.23634517       2.71077925       3.94494405       0.00000286      -0.00001475       0.00000680
H        2.23498826       6.24657105       3.92471048      -0.00002400      -0.00001054       0.00001737
H        0.69574708       6.15827829       3.92512253       0.00003141      -0.00001435       0.00001520
H        6.25515347       2.13080474       4.32969707       0.00000287      -0.00000391       0.00001922
H        2.73765110       1.45324493       5.72702189      -0.00001059       0.00001091      -0.00002338
H        6.30453717       1.39790580       5.72053434       0.00000351       0.00002551      -0.00001207
H        3.21894961       4.46432900      -0.10750826      -0.00003317       0.00000506      -0.00001706
H       -0.34795061       4.51967661      -0.10104087      -0.00001396       0.00002719      -0.00000060
H        4.49968860       3.71701866       3.62377142       0.00000663      -0.00001534       0.00000806
H        4.46445123       5.26260430       3.69493490       0.00000914       0.00000149       0.00000265
H        4.44580590       1.82768547       2.13948990       0.00000165       0.00001788      -0.00000200
H        1.81216719       4.46620766       0.71545411       0.00000131       0.00001492      -0.00001749
H        3.72024138       3.20680026       1.67455503       0.00000360       0.00000326      -0.00000128
H        3.72159770      -0.32897970       1.69478329      -0.00002138       0.00000899      -0.00001699
H        5.26083396      -0.24068633       1.69436037       0.00002695       0.00001238      -0.00000769
H       -0.29856847       3.78677944       1.28979297      -0.00001789       0.00002650       0.00002781
O        1.48569781       5.75903217       3.46908635       0.00000284       0.00000187      -0.00003048
O        5.81545705       1.39757742       4.84805764       0.00000847      -0.00002148      -0.00001151
O        1.48608697       1.45167788       1.33018084      -0.00002059       0.00000272      -0.00001958
O        1.45639251       3.08853877       3.45652833       0.00002928       0.00001544      -0.00001472
O        3.14535168       1.46172845       4.82132068      -0.00000013      -0.00001227      -0.00001644
O        4.47050518       4.46591495       4.28931242      -0.00002087      -0.00000457      -0.00000217
O        4.50019754       2.82904183       2.16296509       0.00000054       0.00001132       0.00001516
O        2.81123651       4.45585249       0.79818699       0.00000388      -0.00000389      -0.00000424
O        0.14111949       4.52001784       0.77144084       0.00005032      -0.00005809      -0.00003402
O        4.47088861       0.15856517       2.15039922       0.00000220      -0.00006832       0.00003143
H        1.45513071       2.17673700       7.64874689      -0.00001163      -0.00000374      -0.00001103
H        1.49035512       0.63115065       7.57759030       0.00000157      -0.00001580       0.00000170
H        1.50900934       4.06605189       9.13302891       0.00004074       0.00000256      -0.00000572
H        4.14264629       1.42753107      10.55707454       0.00000247      -0.00001117      -0.00000763
H        2.23456934       2.68693241       9.59797409       0.00000337       0.00003016      -0.00000463
H        2.23320998       6.22272467       9.57774414       0.00002295       0.00001690      -0.00002600
H        0.69397577       6.13443191       9.57815484      -0.00002882       0.00001001      -0.00001668
H        6.25337747       2.10696242       9.98272875       0.00000038       0.00000158      -0.00002201
H        2.73587596       1.42940453      11.38004972      -0.00001970      -0.00000661      -0.00001647
H        6.30276088       1.37406686      11.37356201       0.00000497      -0.00001413       0.00001018
H        3.21717015       4.44048610       5.54551966       0.00000300       0.00000924      -0.00001208
H       -0.34972958       4.49583768       5.55198817       0.00001094      -0.00001060       0.00000894
H        4.49791404       3.69317348       9.27680160      -0.00000286       0.00001709      -0.00000625
H        4.46267576       5.23876343       9.34796446       0.00000724      -0.00002173      -0.00000750
H        4.44402965       1.80384453       7.79251725       0.00001426      -0.00000456       0.00001247
H        1.81039231       4.44236730       6.36847970      -0.00001070      -0.00000253       0.00001042
H        3.71846535       3.18295731       7.32758408       0.00000541       0.00001747      -0.00000574
H        3.71982290      -0.35282039       7.34780658      -0.00001290      -0.00000913       0.00002555
H        5.25905887      -0.26452675       7.34738480       0.00000581      -0.00001002       0.00002544
H       -0.30034750       3.76294194       6.94282667       0.00000601      -0.00000838      -0.00002790
O        1.48392225       5.73519773       9.12210336       0.00000002      -0.00004488       0.00006716
O        5.81368393       1.37373066      10.50108375       0.00000341       0.00001840       0.00001077
O        1.48430783       1.42783719       6.98320853       0.00001009      -0.00001247       0.00000280
O        1.45462334       3.06469719       9.10955056      -0.00003025       0.00000176       0.00003418
O        3.14357579       1.43788038      10.47434845       0.00000283       0.00003476      -0.00000682
O        4.46872903       4.44207250       9.94234024      -0.00001575      -0.00000488       0.00001109
O        4.49842346       2.80520008       7.81599284      -0.00001831      -0.00000047       0.00001884
O        2.80946196       4.43200913       6.45121661      -0.00000835       0.00000351      -0.00001485
O        0.13935236       4.49616622       6.42446417      -0.00000525       0.00002210       0.00001137
O        4.46911364       0.13471310       7.80343527      -0.00000287       0.00002702      -0.00002722
H        1.41542083       8.19173376       1.96315958      -0.00001383      -0.00005787       0.00000867
H        1.45064545       6.64614075       1.89200317      -0.00000367       0.00003595       0.00002170
H        1.46930437      10.08104493       3.44744052      -0.00000624       0.00001114       0.00001765
H        4.10293600       7.44252534       4.87148678       0.00000380      -0.00001953       0.00001248
H        2.19485940       8.70192882       3.91238696       0.00000006      -0.00000022       0.00000802
H        2.19350291      12.23772022       3.89215335      -0.00001849       0.00000208       0.00001779
H        0.65426226      12.14942840       3.89256461       0.00001198      -0.00001110       0.00002222
H        6.21366490       8.12195802       4.29714260       0.00002457      -0.00002486      -0.00000147
H        2.69616445       7.44439723       5.69446507      -0.00000586      -0.00000158      -0.00002471
H        6.26304858       7.38906117       5.68797989       0.00002468      -0.00001273      -0.00003325
H        3.17746118      10.45547955      -0.14006633      -0.00001723       0.00000759      -0.00000763
H       -0.38944083      10.51083058      -0.13359491       0.00002492       0.00000583      -0.00003009
H        4.45820479       9.70816926       3.59121708      -0.00001095      -0.00002616      -0.00001015
H        4.42296616      11.25375442       3.66237834       0.00000133       0.00001972       0.00000405
H        4.40432041       7.81883644       2.10693316      -0.00000163       0.00001754      -0.00000272
H        1.77068053      10.45736080       0.68289543       0.00001367      -0.00000382      -0.00000650
H        3.67875450       9.19795215       1.64199874       0.00001011      -0.00000646      -0.00000647
H        3.68011016       5.66217294       1.66222278       0.00001259      -0.00000924       0.00000958
H        5.21934998       5.75046711       1.66180049      -0.00001033      -0.00001540       0.00001408
H       -0.34005818       9.77793544       1.25723827       0.00001574      -0.00001887       0.00001701
O        1.44421221      11.75018250       3.43652849       0.00000003       0.00001307      -0.00001947
O        5.77397968       7.38872062       4.81549684      -0.00006385       0.00004263       0.00002018
O        1.44459748       7.44283022       1.29762473       0.00000914      -0.00000916      -0.00002844
O        1.41490807       9.07969029       3.42397074       0.00001476       0.00000753      -0.00001192
O        3.10386581       7.45287440       4.78876387       0.00000109       0.00002945      -0.00001688
O        4.42901556      10.45706604       4.25675668       0.00001082      -0.00000616      -0.00001960
O        4.45871253       8.82019262       2.13040652      -0.00000714       0.00001156       0.00002712
O        2.76975072      10.44700246       0.76563028       0.00000609       0.00000432      -0.00000295
O        0.09964407      10.51115972       0.73887870      -0.00004231       0.00001576       0.00000950
O        4.42940282       6.14970712       2.11784736       0.00000150       0.00002161      -0.00000323
H        1.41364478       8.16788328       7.61619003      -0.00001126       0.00004675      -0.00001339
H        1.44886907       6.62230328       7.54503576       0.00000298      -0.00004304      -0.00002054
H        1.46752938      10.05720315       9.10047064      -0.00000912      -0.00000236       0.00000481
H        4.10116149       7.41867781      10.52451681      -0.00001065       0.00002286       0.00000054
H        2.19308283       8.67808627       9.56541653       0.00000873       0.00000620       0.00000058
H        2.19172463      12.21388004       9.54518347      -0.00000209      -0.00001782       0.00000679
H        0.65248654      12.12558646       9.54559492       0.00001768      -0.00001467       0.00000979
H        6.21189346       8.09811109       9.95017047      -0.00001604       0.00002180      -0.00001249
H        2.69438982       7.42055220      11.34749198      -0.00001494       0.00002094      -0.00000915
H        6.26127603       7.36521559      11.34100377      -0.00000413       0.00000250       0.00002374
H        3.17568489      10.43163694       5.51296417      -0.00000033       0.00000904      -0.00002445
H       -0.39121509      10.48698812       5.51943091       0.00000752      -0.00000589       0.00000894
H        4.45642911       9.68432564       9.24424256      -0.00001170       0.00001128       0.00001042
H        4.42119069      11.22991418       9.31540649       0.00000075      -0.00002559       0.00000062
H        4.40254523       7.79499581       7.75995906       0.00000148      -0.00000994       0.00002344
H        1.76890700      10.43351781       6.33592205      -0.00001668       0.00000020       0.00001906
H        3.67698004       9.17410710       7.29502537       0.00000012       0.00002703       0.00000947
H        3.67833292       5.63832970       7.31525457       0.00002928      -0.00000423      -0.00001577
H        5.21757512       5.72662421       7.31483184      -0.00001991      -0.00001398      -0.00000826
H       -0.34183291       9.75409101       6.91026866       0.00000335       0.00000429      -0.00001685
O        1.44243598      11.72634121       9.08955645       0.00000436       0.00000233      -0.00001878
O        5.77219226       7.36488647      10.46852964       0.00005418      -0.00002265      -0.00001240
O        1.44282203       7.41898642       6.95064919       0.00000902       0.00000102       0.00003081
O        1.41313377       9.05584796       9.07699652       0.00000029       0.00000320       0.00001190
O        3.10209048       7.42903959      10.44179137      -0.00000580      -0.00003651      -0.00000734
O        4.42724060      10.43322319       9.90978281       0.00000523      -0.00000330       0.00001909
O        4.45693432       8.79635129       7.78344104       0.00000835      -0.00000448      -0.00002400
O        2.76797612      10.42316025       6.41866034      -0.00000953       0.00000049      -0.00002126
O        0.09786340      10.48731906       6.39190831       0.00001622       0.00000595       0.00000253
O        4.42762701       6.12586949       7.77087213       0.00000232      -0.00001439       0.00002562
H        7.45675516       2.15085655       1.99473876      -0.00000186      -0.00000559      -0.00000219
H        7.49198025       0.60527036       1.92358428       0.00000423       0.00000453      -0.00000625
H        7.51064165       4.04017212       3.47902025      -0.00002086       0.00001304       0.00000374
H       10.14427245       1.40164732       4.90306701      -0.00000284       0.00002682      -0.00000433
H        8.23619435       2.66105749       3.94396638       0.00000655      -0.00001193      -0.00000176
H        8.23483595       6.19685018       3.92373286      -0.00000125      -0.00001824       0.00000640
H        6.69559790       6.10855670       3.92414397       0.00001745      -0.00001699       0.00001255
H       12.25500538       2.08108015       4.32871866      -0.00001927       0.00002448       0.00000480
H        8.73750197       1.40352249       5.72604181      -0.00002231       0.00001687      -0.00001226
H       12.30438819       1.34818463       5.71955384      -0.00001005       0.00001324       0.00001361
H        9.21879730       4.41460700      -0.10848576      -0.00001254       0.00000743      -0.00002862
H        5.65189633       4.46995858      -0.10201927       0.00000725      -0.00000874       0.00000540
H       10.49954053       3.66729981       3.62279064      -0.00001134      -0.00005416       0.00002761
H       10.46430238       5.21288050       3.69395485      -0.00000267       0.00003234       0.00001718
H       10.44566059       1.77796310       2.13850844      -0.00004464       0.00002939       0.00001824
H        7.81201710       4.41648808       0.71447226      -0.00000179      -0.00000325       0.00001126
H        9.72009144       3.15708089       1.67357397       0.00000073      -0.00002426       0.00001827
H        9.72144799      -0.37870017       1.69380149      -0.00002831      -0.00000176       0.00000993
H       11.26068273      -0.29040521       1.69337954       0.00003782      -0.00001148       0.00001089
H        5.70127852       3.73706063       1.28881823       0.00000251       0.00000683      -0.00001382
O        7.48554744       5.70931010       3.46810669       0.00000403       0.00000672      -0.00001959
O       11.81530252       1.34785840       4.84708061       0.00005473      -0.00004154      -0.00002424
O        7.48593449       1.40195640       1.32920071      -0.00000111       0.00000058      -0.00000182
O        7.45624438       3.03881739       3.45554638       0.00001068       0.00001078       0.00000943
O        9.14520164       1.41200924       4.82034088      -0.00000182      -0.00003378      -0.00000725
O       10.47035173       4.41619299       4.28833488       0.00000653      -0.00000197      -0.00002123
O       10.50004194       2.77931958       2.16199258       0.00005027       0.00001987      -0.00003506
O        8.81108666       4.40612973       0.79720982      -0.00000048       0.00000526      -0.00001988
O        6.14097508       4.47028867       0.77045790       0.00001268       0.00000574       0.00000125
O       10.47073817       0.10883754       2.14942663       0.00000479      -0.00001737      -0.00002195
H        7.45498055       2.12701428       7.64776783      -0.00001212       0.00000760      -0.00000821
H        7.49020487       0.58142925       7.57661142       0.00000191      -0.00002192       0.00000231
H        7.50886280       4.01633066       9.13204843       0.00001191      -0.00000584       0.00001020
H       10.14249597       1.37781003      10.55609476       0.00000511      -0.00001850      -0.00000277
H        8.23441904       2.63721249       9.59699440       0.00000457       0.00001858       0.00000245
H        8.23306005       6.17300517       9.57676177       0.00002384      -0.00000307       0.00000514
H        6.69382482       6.08471297       9.57717274      -0.00002661      -0.00001440       0.00001168
H       12.25322503       2.05724314       9.98175039       0.00002223      -0.00002408      -0.00001739
H        8.73572516       1.37968156      11.37907075      -0.00001742       0.00000462      -0.00001305
H       12.30260809       1.32434658      11.37258580       0.00002981      -0.00002231      -0.00001803
H        9.21701957       4.39076444       5.54454055       0.00000601       0.00000902      -0.00000853
H        5.65011958       4.44611676       5.55100989       0.00001696      -0.00001483       0.00000047
H       10.49776610       3.64344886       9.27582545      -0.00002248       0.00005929      -0.00003133
H       10.46252670       5.18904436       9.34698663      -0.00000231      -0.00006228      -0.00001965
H       10.44387871       1.75412272       7.79154016       0.00001817      -0.00000358      -0.00000339
H        7.81024218       4.39264592       6.36750080      -0.00001185      -0.00000544       0.00001165
H        9.71831434       3.13323505       7.32660531       0.00001364       0.00001999      -0.00000444
H        9.71967004      -0.40254290       7.34683087       0.00001516      -0.00000286      -0.00000207
H       11.25891053      -0.31424889       7.34640855      -0.00001520      -0.00000749       0.00000239
H        5.69950208       3.71322033       6.94184776       0.00000920      -0.00001151      -0.00002209
O        7.48377227       5.68546803       9.12113241      -0.00000126       0.00002878       0.00000230
O       11.81353946       1.32400486      10.50010293      -0.00005547       0.00005392       0.00003007
O        7.48415849       1.37811514       6.98222907       0.00000200      -0.00000958       0.00001058
O        7.45447032       3.01497564       9.10857517      -0.00000883      -0.00000168       0.00000654
O        9.14342605       1.38816030      10.47336955      -0.00000018       0.00002086      -0.00000301
O       10.46857380       4.39235118       9.94136016       0.00002647      -0.00000857       0.00003438
O       10.49827390       2.75547833       7.81501258      -0.00002287       0.00000016       0.00003328
O        8.80931157       4.38228733       6.45023792      -0.00000674       0.00000394      -0.00001442
O        6.13920316       4.44644327       6.42348465      -0.00001865       0.00003208       0.00001747
O       10.46896287       0.08499518       7.80245124       0.00000130      -0.00000669       0.00002210
H        7.41526916       8.14201288       1.96218125      -0.00000182      -0.00007035       0.00000622
H        7.45049415       6.59641838       1.89102485       0.00000553       0.00004628       0.00001961
H        7.46915053      10.03132215       3.44646447       0.00002181       0.00002371      -0.00000594
H       10.10278559       7.39280261       4.87051051       0.00000651      -0.00001174      -0.00000893
H        8.19470901       8.65220580       3.91140994       0.00000198       0.00000713      -0.00000551
H        8.19335206      12.18799639       3.89117874      -0.00001945       0.00002026      -0.00001425
H        6.65411247      12.09970362       3.89158943       0.00001543       0.00001625      -0.00000497
H       12.21351681       8.07223401       4.29616211       0.00000693      -0.00000510       0.00001287
H        8.69601560       7.39467614       5.69348572      -0.00001877      -0.00000644      -0.00001959
H       12.26290049       7.33933727       5.68699965       0.00000763       0.00000514      -0.00001956
H        9.17731127      10.40575833      -0.14104402      -0.00001862       0.00000270      -0.00001631
H        5.61040978      10.46110855      -0.13457435       0.00001595       0.00000413      -0.00001982
H       10.45805367       9.65844758       3.59023633      -0.00000371      -0.00001626       0.00000446
H       10.42281559      11.20403344       3.66139913       0.00000444       0.00000410       0.00000525
H       10.40417037       7.76911569       2.10595207       0.00000128       0.00000497       0.00001943
H        7.77053021      10.40763918       0.68191637       0.00001264      -0.00000445      -0.00000197
H        9.67860532       9.14822981       1.64101931      -0.00000010       0.00000498      -0.00000095
H        9.67996402       5.61245137       1.66124082      -0.00003447      -0.00000835       0.00003782
H       11.21919712       5.70074539       1.66081942       0.00002455      -0.00001109       0.00003457
H        5.65979155       9.72821418       1.25626065       0.00001437      -0.00002172       0.00000163
O        7.44406162      11.70046900       3.43554176       0.00000198      -0.00005824       0.00004151
O       11.77382433       7.33900363       4.81452057      -0.00002032       0.00000329       0.00000046
O        7.44444901       7.39310861       1.29664690      -0.00000508      -0.00001047      -0.00003932
O        7.41476140       9.02996792       3.42298710      -0.00001295       0.00001515       0.00002959
O        9.10371516       7.40315198       4.78778441       0.00000535       0.00003533      -0.00001051
O       10.42886806      10.40734430       4.25577702      -0.00001235      -0.00000665      -0.00000510
O       10.45856126       8.77047144       2.12943074      -0.00000068       0.00000442      -0.00000034
O        8.76960043      10.39727973       0.76465191       0.00000580       0.00001315      -0.00000637
O        6.09949361      10.46143801       0.73790012      -0.00003709       0.00001777       0.00000900
O       10.42925319       6.09998292       2.11687359      -0.00000248       0.00003322      -0.00004691
H        7.41349352       8.11816093       7.61520935      -0.00000298       0.00007185      -0.00000130
H        7.44871801       6.57258339       7.54405688       0.00000997      -0.00007723      -0.00002466
H        7.46737849      10.00748199       9.09949061      -0.00000223      -0.00001277       0.00001695
H       10.10101227       7.36895677      10.52353680      -0.00002325       0.00001737       0.00001546
H        8.19293316       8.62836346       9.56443738       0.00000454       0.00001877       0.00000490
H        8.19157289      12.16415753       9.54420586       0.00003022      -0.00001479      -0.00000531
H        6.65233889      12.07586456       9.54461712      -0.00002295      -0.00001923      -0.00000055
H       12.21174246       8.04839057       9.94919191      -0.00000875       0.00000987      -0.00001322
H        8.69423844       7.37083129      11.34651439       0.00000098       0.00001387      -0.00001972
H       12.26112596       7.31549307      11.34002511      -0.00000507       0.00000951       0.00002141
H        9.17553704      10.38191529       5.51198446      -0.00002602       0.00000859      -0.00001490
H        5.60863675      10.43726429       5.51845152      -0.00000787       0.00001340       0.00001215
H       10.45627733       9.63460527       9.24326447       0.00000154      -0.00001861       0.00000893
H       10.42103978      11.18019043       9.31442800       0.00000581       0.00000900       0.00000364
H       10.40239320       7.74527282       7.75898288       0.00001306       0.00000628      -0.00000017
H        7.76875557      10.38379458       6.33494633      -0.00000165       0.00001238      -0.00001050
H        9.67682952       9.12438604       7.29404803       0.00000385       0.00001538      -0.00000234
H        9.67818141       5.58860766       7.31427701       0.00005011      -0.00000341      -0.00002677
H       11.21742650       5.67690114       7.31385439      -0.00004270      -0.00000531      -0.00001949
H        5.65801908       9.70436692       6.90928765      -0.00001391       0.00002367       0.00000543
O        7.44228626      11.67661999       9.08857513      -0.00000052       0.00001078       0.00000872
O       11.77204281       7.31516431      10.46755060       0.00004484      -0.00001822      -0.00000928
O        7.44267479       7.36926481       6.94966899      -0.00001642      -0.00000081       0.00005589
O        7.41298315       9.00612655       9.07601958       0.00000239      -0.00000302      -0.00000475
O        9.10194078       7.37931564      10.44081382      -0.00001176      -0.00001873      -0.00002029
O       10.42709249      10.38350136       9.90880580      -0.00001175      -0.00000218      -0.00000768
O       10.45678675       8.74662897       7.78245753      -0.00001220       0.00000351       0.00001873
O        8.76782490      10.37343949       6.41768004       0.00000123      -0.00000705      -0.00000471
O        6.09770877      10.43760221       6.39093230       0.00005039      -0.00003486      -0.00001971
O       10.42747693       6.07614978       7.76989013       0.00000022      -0.00002415       0.00005488
