6
Properties=species:S:1:pos:R:3:forces:R:3 #=T CELL(abcABC):=T 200.00000=T 90.00000=T Step:=T 67=T Bead:=T 0=T positionsangstrom=T cellatomic_unit=T energy=-28.77924508643423 pbc="F F F"
O        0.14478319      -0.96719584       0.26246191       0.03394335       0.03903220       0.04509871
H       -0.78924749      -0.86885365       0.02178426      -0.00950743       0.02560994      -0.00055607
H        0.53464759      -1.44711897      -0.48432040       0.02132614       0.01235524      -0.01233279
O        1.59807458       1.71901683       1.00391766      -0.02778500      -0.04238383      -0.02445140
H        1.89532428       1.60341850       1.91861232       0.00161288      -0.00295356       0.00753161
H        1.15242920       0.87619037       0.79734716      -0.01958995      -0.03165998      -0.01529005
