6
Properties=species:S:1:pos:R:3:forces:R:3 #=T CELL(abcABC):=T 200.00000=T 90.00000=T Step:=T 67=T Bead:=T 0=T positionsangstrom=T cellatomic_unit=T energy=-28.642841451167122 pbc="F F F"
O        0.14459894      -0.96490245       0.25932662       0.05425701       0.10101938       0.02730924
H       -0.79066094      -0.87311230       0.02144114      -0.01237340      -0.01002905      -0.00294059
H        0.53235993      -1.45102557      -0.48434289      -0.00197451      -0.01457395      -0.00699705
O        1.99712878       2.44852200       1.21675377      -0.04024465      -0.07006168      -0.02552199
H        2.29462699       2.33313199       2.13188351       0.00724858       0.00482650       0.01351549
H        1.55315857       1.60895235       1.01087597      -0.00691304      -0.01118119      -0.00536510
