6
Properties=species:S:1:pos:R:3:forces:R:3 #=T CELL(abcABC):=T 200.00000=T 90.00000=T Step:=T 67=T Bead:=T 0=T positionsangstrom=T cellatomic_unit=T energy=-28.651255994775898 pbc="F F F"
O        0.14303689      -0.96585742       0.25635269      -0.46053749      -0.84907110      -0.23765972
H       -0.79512915      -0.86831407       0.02564744       0.03818689      -0.01169107      -0.02358015
H        0.54011505      -1.45156885      -0.48481156      -0.04009172       0.02281248       0.00667656
O        1.33252901       1.23113498       0.86510371       0.42110647       0.76965196       0.22562906
H        1.63211240       1.12166764       1.77889761       0.01833874       0.04231718      -0.00045354
H        0.88654655       0.39098909       0.65452287       0.02299711       0.02598056       0.02938779
