3
Properties=species:S:1:pos:R:3:forces:R:3 energy=-14.160290474255566 stress="inf inf inf inf inf inf inf inf inf" free_energy=-14.160290474255566 pbc="F F F"
H       -0.00000000      -0.05992557      -0.35501849       0.00000000       0.00004833       0.00021019
O       -0.00000000       0.71829295       0.22896024       0.00000000      -0.00000892       0.00005531
H        0.00000000       0.34163263       1.12605826      -0.00000000      -0.00003940      -0.00026550
