288
Lattice="16.097630011466805 2.5579192666220833e-07 -2.4940448643150983e-08 2.4820134186337005e-07 15.820471407661701 -3.756656619314145e-08 -1.273827343700103e-08 -1.8603775619323988e-08 7.849059042608838" Properties=species:S:1:pos:R:3:forces:R:3 energy=-1432.5175021445484 stress="5.9589736108719635e-06 7.972154015811331e-07 2.434026107218128e-07 7.972154015811331e-07 9.035888631568623e-06 -7.806383541468553e-08 2.434026107218128e-07 -7.806383541468553e-08 -1.058138428629632e-05" pbc="T T T"
H        4.31058095       6.67154836       1.85105925      -0.00003063      -0.00002159       0.00003093
H        0.78050156       1.60177705       1.03363523      -0.00001307      -0.00001596      -0.00006596
H        6.31486476      -0.23330761       3.59713720      -0.00001766       0.00001655      -0.00000182
H        5.81931415       3.70133781       1.22880478      -0.00004136       0.00004827       0.00001251
H        3.35021150       4.69884856       1.44746125      -0.00000583       0.00002438      -0.00004334
H        6.84489464       2.55862460       1.51129475       0.00001315      -0.00005333       0.00003659
H        3.24390990       6.30847132       2.99588565       0.00001251      -0.00000830       0.00001433
H        0.67418824       3.21138021       3.40971186       0.00000531       0.00000579       0.00003421
H       -0.28615676       1.23868123      -0.11120415       0.00004359       0.00001967       0.00003037
H        6.25392476       4.20890215       3.19107440       0.00001277      -0.00000791      -0.00001060
H        5.22833348       5.35161408       3.47356995       0.00001887       0.00002636       0.00000853
H        8.33494568       5.19381369       2.07346887      -0.00000492       0.00000017      -0.00000919
H        7.37461445      -0.74376740       2.47709046       0.00001914       0.00005502      -0.00002774
H        4.69860735       8.65399172       0.51481972       0.00002194      -0.00005431      -0.00002420
H        7.26827238       5.55690905       0.92864786       0.00002447      -0.00000864       0.00001032
H        2.22948759       7.65648049       0.73347541      -0.00002464      -0.00005342      -0.00001305
H        1.20393096       6.51373697       0.45094549       0.00001627       0.00004700       0.00000846
H        2.29046400       4.18843362       0.32738509       0.00002363      -0.00002570       0.00004960
H        5.75837539       8.14353504       1.63485754      -0.00003126       0.00002148       0.00004060
H        1.79491448       0.25376068       2.69573378      -0.00005100      -0.00001250      -0.00000091
H        2.82046425       1.39649479       2.41319370       0.00004652       0.00002828       0.00000624
H        3.73826925       2.71640268       4.03573287      -0.00001560       0.00004644      -0.00006131
H        1.73392907       3.72182012       2.28965242       0.00003019       0.00002781       0.00000549
H        4.80494792       2.35333386       2.89090939      -0.00005250      -0.00000631      -0.00000308
O        0.05454440       1.98400729       0.46545577      -0.00002816       0.00000991       0.00001461
O        5.12671738       7.84222328       0.92320567       0.00003304       0.00001488       0.00001742
O        1.97355800       6.99657186       0.03029861       0.00001306      -0.00000644      -0.00004354
O        3.96988319       5.92623318       2.42773477      -0.00005004      -0.00001778      -0.00003622
O        2.05083738       0.91366047       1.99254839       0.00002729       0.00000080       0.00004866
O        6.94651380       0.06800667       2.88547856      -0.00003147      -0.00002555      -0.00000681
O        5.99796380       4.86879986       3.89424300      -0.00003403      -0.00004470      -0.00000020
O        6.07527213       3.04144151       1.93197633       0.00001511       0.00002399      -0.00003371
O        7.99424366       5.93913739       1.49681165       0.00004335      -0.00002426      -0.00002865
O        2.92208992       3.88709804       1.03905755       0.00002087       0.00002018       0.00001842
O        1.10230369       4.02314557       3.00132775      -0.00002399      -0.00005535      -0.00003789
O        4.07896296       1.97109661       3.45905003       0.00001509       0.00000509       0.00006094
H        4.31058094       6.67154835       5.77558877      -0.00003063      -0.00002159       0.00003093
H        0.78050155       1.60177704       4.95816475      -0.00001307      -0.00001596      -0.00006596
H        6.31486475      -0.23330762       7.52166672      -0.00001766       0.00001655      -0.00000182
H        5.81931414       3.70133780       5.15333430      -0.00004136       0.00004827       0.00001251
H        3.35021149       4.69884855       5.37199077      -0.00000583       0.00002438      -0.00004334
H        6.84489463       2.55862459       5.43582427       0.00001315      -0.00005333       0.00003659
H        3.24390989       6.30847131       6.92041517       0.00001251      -0.00000830       0.00001433
H        0.67418824       3.21138020       7.33424138       0.00000531       0.00000579       0.00003421
H       -0.28615676       1.23868122       3.81332537       0.00004359       0.00001967       0.00003037
H        6.25392476       4.20890214       7.11560392       0.00001277      -0.00000791      -0.00001060
H        5.22833347       5.35161407       7.39809947       0.00001887       0.00002636       0.00000853
H        8.33494568       5.19381368       5.99799839      -0.00000492       0.00000017      -0.00000919
H        7.37461445      -0.74376741       6.40161998       0.00001914       0.00005502      -0.00002774
H        4.69860734       8.65399171       4.43934924       0.00002194      -0.00005431      -0.00002420
H        7.26827237       5.55690904       4.85317738       0.00002447      -0.00000864       0.00001032
H        2.22948758       7.65648048       4.65800493      -0.00002464      -0.00005342      -0.00001305
H        1.20393095       6.51373696       4.37547501       0.00001627       0.00004700       0.00000846
H        2.29046400       4.18843361       4.25191461       0.00002363      -0.00002570       0.00004960
H        5.75837539       8.14353503       5.55938706      -0.00003126       0.00002148       0.00004060
H        1.79491448       0.25376067       6.62026330      -0.00005100      -0.00001250      -0.00000091
H        2.82046425       1.39649478       6.33772322       0.00004652       0.00002828       0.00000624
H        3.73826925       2.71640267       7.96026239      -0.00001560       0.00004644      -0.00006131
H        1.73392906       3.72182011       6.21418194       0.00003019       0.00002781       0.00000549
H        4.80494791       2.35333385       6.81543892      -0.00005250      -0.00000631      -0.00000308
O        0.05454440       1.98400728       4.38998529      -0.00002816       0.00000991       0.00001461
O        5.12671737       7.84222327       4.84773519       0.00003304       0.00001488       0.00001742
O        1.97355800       6.99657185       3.95482813       0.00001306      -0.00000644      -0.00004354
O        3.96988318       5.92623318       6.35226429      -0.00005004      -0.00001778      -0.00003622
O        2.05083737       0.91366046       5.91707791       0.00002729       0.00000080       0.00004866
O        6.94651379       0.06800667       6.81000808      -0.00003147      -0.00002555      -0.00000681
O        5.99796379       4.86879986       7.81877252      -0.00003403      -0.00004470      -0.00000020
O        6.07527212       3.04144150       5.85650585       0.00001511       0.00002399      -0.00003371
O        7.99424365       5.93913738       5.42134117       0.00004335      -0.00002426      -0.00002865
O        2.92208992       3.88709803       4.96358707       0.00002087       0.00002018       0.00001842
O        1.10230369       4.02314556       6.92585727      -0.00002399      -0.00005535      -0.00003789
O        4.07896295       1.97109660       7.38357955       0.00001509       0.00000509       0.00006094
H        4.31058107      14.58178406       1.85105923      -0.00003063      -0.00002159       0.00003093
H        0.78050168       9.51201276       1.03363521      -0.00001307      -0.00001596      -0.00006596
H        6.31486488       7.67692810       3.59713718      -0.00001766       0.00001655      -0.00000182
H        5.81931427      11.61157351       1.22880476      -0.00004136       0.00004827       0.00001251
H        3.35021162      12.60908427       1.44746123      -0.00000583       0.00002438      -0.00004334
H        6.84489476      10.46886030       1.51129473       0.00001315      -0.00005333       0.00003659
H        3.24391002      14.21870702       2.99588563       0.00001251      -0.00000830       0.00001433
H        0.67418837      11.12161592       3.40971184       0.00000531       0.00000579       0.00003421
H       -0.28615663       9.14891693      -0.11120417       0.00004359       0.00001967       0.00003037
H        6.25392489      12.11913786       3.19107438       0.00001277      -0.00000791      -0.00001060
H        5.22833360      13.26184978       3.47356993       0.00001887       0.00002636       0.00000853
H        8.33494581      13.10404939       2.07346885      -0.00000492       0.00000017      -0.00000919
H        7.37461458       7.16646830       2.47709044       0.00001914       0.00005502      -0.00002774
H        4.69860747      16.56422742       0.51481970       0.00002194      -0.00005431      -0.00002420
H        7.26827250      13.46714476       0.92864784       0.00002447      -0.00000864       0.00001032
H        2.22948771      15.56671619       0.73347539      -0.00002464      -0.00005342      -0.00001305
H        1.20393108      14.42397267       0.45094547       0.00001627       0.00004700       0.00000846
H        2.29046413      12.09866932       0.32738507       0.00002363      -0.00002570       0.00004960
H        5.75837552      16.05377074       1.63485752      -0.00003126       0.00002148       0.00004060
H        1.79491461       8.16399638       2.69573376      -0.00005100      -0.00001250      -0.00000091
H        2.82046438       9.30673049       2.41319368       0.00004652       0.00002828       0.00000624
H        3.73826938      10.62663839       4.03573285      -0.00001560       0.00004644      -0.00006131
H        1.73392919      11.63205582       2.28965240       0.00003019       0.00002781       0.00000549
H        4.80494804      10.26356956       2.89090938      -0.00005250      -0.00000631      -0.00000308
O        0.05454453       9.89424300       0.46545575      -0.00002816       0.00000991       0.00001461
O        5.12671750      15.75245898       0.92320565       0.00003304       0.00001488       0.00001742
O        1.97355813      14.90680757       0.03029859       0.00001306      -0.00000644      -0.00004354
O        3.96988331      13.83646889       2.42773475      -0.00005004      -0.00001778      -0.00003622
O        2.05083750       8.82389617       1.99254837       0.00002729       0.00000080       0.00004866
O        6.94651393       7.97824238       2.88547854      -0.00003147      -0.00002555      -0.00000681
O        5.99796392      12.77903557       3.89424298      -0.00003403      -0.00004470      -0.00000020
O        6.07527225      10.95167721       1.93197631       0.00001511       0.00002399      -0.00003371
O        7.99424378      13.84937309       1.49681163       0.00004335      -0.00002426      -0.00002865
O        2.92209005      11.79733374       1.03905753       0.00002087       0.00002018       0.00001842
O        1.10230382      11.93338128       3.00132773      -0.00002399      -0.00005535      -0.00003789
O        4.07896308       9.88133231       3.45905001       0.00001509       0.00000509       0.00006094
H        4.31058106      14.58178405       5.77558875      -0.00003063      -0.00002159       0.00003093
H        0.78050168       9.51201275       4.95816473      -0.00001307      -0.00001596      -0.00006596
H        6.31486488       7.67692809       7.52166670      -0.00001766       0.00001655      -0.00000182
H        5.81931426      11.61157350       5.15333428      -0.00004136       0.00004827       0.00001251
H        3.35021162      12.60908426       5.37199075      -0.00000583       0.00002438      -0.00004334
H        6.84489476      10.46886029       5.43582425       0.00001315      -0.00005333       0.00003659
H        3.24391002      14.21870701       6.92041515       0.00001251      -0.00000830       0.00001433
H        0.67418836      11.12161591       7.33424136       0.00000531       0.00000579       0.00003421
H       -0.28615664       9.14891693       3.81332535       0.00004359       0.00001967       0.00003037
H        6.25392488      12.11913785       7.11560390       0.00001277      -0.00000791      -0.00001060
H        5.22833360      13.26184977       7.39809945       0.00001887       0.00002636       0.00000853
H        8.33494580      13.10404938       5.99799837      -0.00000492       0.00000017      -0.00000919
H        7.37461457       7.16646829       6.40161996       0.00001914       0.00005502      -0.00002774
H        4.69860747      16.56422741       4.43934922       0.00002194      -0.00005431      -0.00002420
H        7.26827250      13.46714475       4.85317736       0.00002447      -0.00000864       0.00001032
H        2.22948771      15.56671618       4.65800491      -0.00002464      -0.00005342      -0.00001305
H        1.20393108      14.42397266       4.37547499       0.00001627       0.00004700       0.00000846
H        2.29046412      12.09866931       4.25191460       0.00002363      -0.00002570       0.00004960
H        5.75837551      16.05377073       5.55938704      -0.00003126       0.00002148       0.00004060
H        1.79491460       8.16399637       6.62026328      -0.00005100      -0.00001250      -0.00000091
H        2.82046437       9.30673048       6.33772320       0.00004652       0.00002828       0.00000624
H        3.73826937      10.62663838       7.96026237      -0.00001560       0.00004644      -0.00006131
H        1.73392919      11.63205581       6.21418192       0.00003019       0.00002781       0.00000549
H        4.80494804      10.26356955       6.81543890      -0.00005250      -0.00000631      -0.00000308
O        0.05454452       9.89424299       4.38998527      -0.00002816       0.00000991       0.00001461
O        5.12671750      15.75245897       4.84773517       0.00003304       0.00001488       0.00001742
O        1.97355812      14.90680756       3.95482811       0.00001306      -0.00000644      -0.00004354
O        3.96988331      13.83646888       6.35226427      -0.00005004      -0.00001778      -0.00003622
O        2.05083750       8.82389616       5.91707789       0.00002729       0.00000080       0.00004866
O        6.94651392       7.97824237       6.81000807      -0.00003147      -0.00002555      -0.00000681
O        5.99796392      12.77903556       7.81877250      -0.00003403      -0.00004470      -0.00000020
O        6.07527224      10.95167720       5.85650583       0.00001511       0.00002399      -0.00003371
O        7.99424377      13.84937308       5.42134116       0.00004335      -0.00002426      -0.00002865
O        2.92209004      11.79733374       4.96358705       0.00002087       0.00002018       0.00001842
O        1.10230381      11.93338127       6.92585725      -0.00002399      -0.00005535      -0.00003789
O        4.07896307       9.88133230       7.38357953       0.00001509       0.00000509       0.00006094
H       12.35939595       6.67154849       1.85105923      -0.00003063      -0.00002159       0.00003093
H        8.82931656       1.60177718       1.03363521      -0.00001307      -0.00001596      -0.00006596
H       14.36367977      -0.23330748       3.59713719      -0.00001766       0.00001655      -0.00000182
H       13.86812915       3.70133794       1.22880476      -0.00004136       0.00004827       0.00001251
H       11.39902650       4.69884869       1.44746124      -0.00000583       0.00002438      -0.00004334
H       14.89370964       2.55862472       1.51129473       0.00001315      -0.00005333       0.00003659
H       11.29272491       6.30847145       2.99588563       0.00001251      -0.00000830       0.00001433
H        8.72300325       3.21138034       3.40971184       0.00000531       0.00000579       0.00003421
H        7.76265825       1.23868136      -0.11120417       0.00004359       0.00001967       0.00003037
H       14.30273977       4.20890228       3.19107438       0.00001277      -0.00000791      -0.00001060
H       13.27714848       5.35161420       3.47356994       0.00001887       0.00002636       0.00000853
H       16.38376069       5.19381381       2.07346886      -0.00000492       0.00000017      -0.00000919
H       15.42342946      -0.74376727       2.47709045       0.00001914       0.00005502      -0.00002774
H       12.74742235       8.65399185       0.51481971       0.00002194      -0.00005431      -0.00002420
H       15.31708739       5.55690918       0.92864785       0.00002447      -0.00000864       0.00001032
H       10.27830259       7.65648062       0.73347540      -0.00002464      -0.00005342      -0.00001305
H        9.25274596       6.51373709       0.45094547       0.00001627       0.00004700       0.00000846
H       10.33927901       4.18843375       0.32738508       0.00002363      -0.00002570       0.00004960
H       13.80719040       8.14353517       1.63485753      -0.00003126       0.00002148       0.00004060
H        9.84372949       0.25376081       2.69573377      -0.00005100      -0.00001250      -0.00000091
H       10.86927926       1.39649492       2.41319369       0.00004652       0.00002828       0.00000624
H       11.78708426       2.71640281       4.03573286      -0.00001560       0.00004644      -0.00006131
H        9.78274407       3.72182025       2.28965240       0.00003019       0.00002781       0.00000549
H       12.85376293       2.35333399       2.89090938      -0.00005250      -0.00000631      -0.00000308
O        8.10335941       1.98400742       0.46545576      -0.00002816       0.00000991       0.00001461
O       13.17553239       7.84222341       0.92320566       0.00003304       0.00001488       0.00001742
O       10.02237301       6.99657199       0.03029860       0.00001306      -0.00000644      -0.00004354
O       12.01869819       5.92623331       2.42773476      -0.00005004      -0.00001778      -0.00003622
O       10.09965239       0.91366059       1.99254838       0.00002729       0.00000080       0.00004866
O       14.99532881       0.06800680       2.88547855      -0.00003147      -0.00002555      -0.00000681
O       14.04677881       4.86879999       3.89424299      -0.00003403      -0.00004470      -0.00000020
O       14.12408713       3.04144164       1.93197631       0.00001511       0.00002399      -0.00003371
O       16.04305866       5.93913752       1.49681164       0.00004335      -0.00002426      -0.00002865
O       10.97090493       3.88709817       1.03905754       0.00002087       0.00002018       0.00001842
O        9.15111870       4.02314570       3.00132774      -0.00002399      -0.00005535      -0.00003789
O       12.12777796       1.97109674       3.45905001       0.00001509       0.00000509       0.00006094
H       12.35939595       6.67154848       5.77558875      -0.00003063      -0.00002159       0.00003093
H        8.82931656       1.60177717       4.95816474      -0.00001307      -0.00001596      -0.00006596
H       14.36367976      -0.23330749       7.52166671      -0.00001766       0.00001655      -0.00000182
H       13.86812914       3.70133793       5.15333429      -0.00004136       0.00004827       0.00001251
H       11.39902650       4.69884868       5.37199076      -0.00000583       0.00002438      -0.00004334
H       14.89370964       2.55862471       5.43582425       0.00001315      -0.00005333       0.00003659
H       11.29272490       6.30847144       6.92041516       0.00001251      -0.00000830       0.00001433
H        8.72300324       3.21138033       7.33424136       0.00000531       0.00000579       0.00003421
H        7.76265824       1.23868135       3.81332536       0.00004359       0.00001967       0.00003037
H       14.30273976       4.20890227       7.11560391       0.00001277      -0.00000791      -0.00001060
H       13.27714848       5.35161419       7.39809946       0.00001887       0.00002636       0.00000853
H       16.38376068       5.19381380       5.99799838      -0.00000492       0.00000017      -0.00000919
H       15.42342945      -0.74376728       6.40161997       0.00001914       0.00005502      -0.00002774
H       12.74742235       8.65399184       4.43934923       0.00002194      -0.00005431      -0.00002420
H       15.31708738       5.55690917       4.85317737       0.00002447      -0.00000864       0.00001032
H       10.27830259       7.65648061       4.65800492      -0.00002464      -0.00005342      -0.00001305
H        9.25274596       6.51373709       4.37547500       0.00001627       0.00004700       0.00000846
H       10.33927900       4.18843374       4.25191460       0.00002363      -0.00002570       0.00004960
H       13.80719039       8.14353516       5.55938705      -0.00003126       0.00002148       0.00004060
H        9.84372948       0.25376080       6.62026329      -0.00005100      -0.00001250      -0.00000091
H       10.86927925       1.39649491       6.33772321       0.00004652       0.00002828       0.00000624
H       11.78708425       2.71640280       7.96026238      -0.00001560       0.00004644      -0.00006131
H        9.78274407       3.72182024       6.21418192       0.00003019       0.00002781       0.00000549
H       12.85376292       2.35333398       6.81543890      -0.00005250      -0.00000631      -0.00000308
O        8.10335940       1.98400741       4.38998528      -0.00002816       0.00000991       0.00001461
O       13.17553238       7.84222340       4.84773518       0.00003304       0.00001488       0.00001742
O       10.02237300       6.99657198       3.95482812       0.00001306      -0.00000644      -0.00004354
O       12.01869819       5.92623330       6.35226428      -0.00005004      -0.00001778      -0.00003622
O       10.09965238       0.91366059       5.91707790       0.00002729       0.00000080       0.00004866
O       14.99532880       0.06800679       6.81000807      -0.00003147      -0.00002555      -0.00000681
O       14.04677880       4.86879998       7.81877251      -0.00003403      -0.00004470      -0.00000020
O       14.12408713       3.04144163       5.85650583       0.00001511       0.00002399      -0.00003371
O       16.04305866       5.93913751       5.42134116       0.00004335      -0.00002426      -0.00002865
O       10.97090492       3.88709816       4.96358706       0.00002087       0.00002018       0.00001842
O        9.15111869       4.02314569       6.92585726      -0.00002399      -0.00005535      -0.00003789
O       12.12777796       1.97109673       7.38357953       0.00001509       0.00000509       0.00006094
H       12.35939608      14.58178419       1.85105921      -0.00003063      -0.00002159       0.00003093
H        8.82931669       9.51201288       1.03363519      -0.00001307      -0.00001596      -0.00006596
H       14.36367989       7.67692822       3.59713717      -0.00001766       0.00001655      -0.00000182
H       13.86812928      11.61157364       1.22880475      -0.00004136       0.00004827       0.00001251
H       11.39902663      12.60908440       1.44746122      -0.00000583       0.00002438      -0.00004334
H       14.89370977      10.46886043       1.51129471       0.00001315      -0.00005333       0.00003659
H       11.29272503      14.21870715       2.99588562       0.00001251      -0.00000830       0.00001433
H        8.72300337      11.12161604       3.40971182       0.00000531       0.00000579       0.00003421
H        7.76265837       9.14891706      -0.11120418       0.00004359       0.00001967       0.00003037
H       14.30273989      12.11913798       3.19107437       0.00001277      -0.00000791      -0.00001060
H       13.27714861      13.26184991       3.47356992       0.00001887       0.00002636       0.00000853
H       16.38376081      13.10404952       2.07346884      -0.00000492       0.00000017      -0.00000919
H       15.42342958       7.16646843       2.47709043       0.00001914       0.00005502      -0.00002774
H       12.74742248      16.56422755       0.51481969       0.00002194      -0.00005431      -0.00002420
H       15.31708751      13.46714488       0.92864783       0.00002447      -0.00000864       0.00001032
H       10.27830272      15.56671632       0.73347538      -0.00002464      -0.00005342      -0.00001305
H        9.25274609      14.42397280       0.45094546       0.00001627       0.00004700       0.00000846
H       10.33927913      12.09866945       0.32738506       0.00002363      -0.00002570       0.00004960
H       13.80719052      16.05377087       1.63485751      -0.00003126       0.00002148       0.00004060
H        9.84372961       8.16399651       2.69573375      -0.00005100      -0.00001250      -0.00000091
H       10.86927938       9.30673062       2.41319367       0.00004652       0.00002828       0.00000624
H       11.78708438      10.62663851       4.03573284      -0.00001560       0.00004644      -0.00006131
H        9.78274420      11.63205595       2.28965238       0.00003019       0.00002781       0.00000549
H       12.85376305      10.26356969       2.89090936      -0.00005250      -0.00000631      -0.00000308
O        8.10335953       9.89424313       0.46545574      -0.00002816       0.00000991       0.00001461
O       13.17553251      15.75245911       0.92320564       0.00003304       0.00001488       0.00001742
O       10.02237313      14.90680769       0.03029858       0.00001306      -0.00000644      -0.00004354
O       12.01869832      13.83646902       2.42773474      -0.00005004      -0.00001778      -0.00003622
O       10.09965251       8.82389630       1.99254836       0.00002729       0.00000080       0.00004866
O       14.99532893       7.97824251       2.88547853      -0.00003147      -0.00002555      -0.00000681
O       14.04677893      12.77903570       3.89424297      -0.00003403      -0.00004470      -0.00000020
O       14.12408726      10.95167734       1.93197629       0.00001511       0.00002399      -0.00003371
O       16.04305879      13.84937322       1.49681162       0.00004335      -0.00002426      -0.00002865
O       10.97090505      11.79733387       1.03905752       0.00002087       0.00002018       0.00001842
O        9.15111882      11.93338140       3.00132772      -0.00002399      -0.00005535      -0.00003789
O       12.12777809       9.88133244       3.45904999       0.00001509       0.00000509       0.00006094
H       12.35939607      14.58178418       5.77558874      -0.00003063      -0.00002159       0.00003093
H        8.82931668       9.51201288       4.95816472      -0.00001307      -0.00001596      -0.00006596
H       14.36367988       7.67692822       7.52166669      -0.00001766       0.00001655      -0.00000182
H       13.86812927      11.61157363       5.15333427      -0.00004136       0.00004827       0.00001251
H       11.39902662      12.60908439       5.37199074      -0.00000583       0.00002438      -0.00004334
H       14.89370976      10.46886042       5.43582424       0.00001315      -0.00005333       0.00003659
H       11.29272502      14.21870714       6.92041514       0.00001251      -0.00000830       0.00001433
H        8.72300337      11.12161603       7.33424135       0.00000531       0.00000579       0.00003421
H        7.76265837       9.14891705       3.81332534       0.00004359       0.00001967       0.00003037
H       14.30273989      12.11913797       7.11560389       0.00001277      -0.00000791      -0.00001060
H       13.27714860      13.26184990       7.39809944       0.00001887       0.00002636       0.00000853
H       16.38376081      13.10404951       5.99799836      -0.00000492       0.00000017      -0.00000919
H       15.42342958       7.16646842       6.40161995       0.00001914       0.00005502      -0.00002774
H       12.74742247      16.56422754       4.43934921       0.00002194      -0.00005431      -0.00002420
H       15.31708750      13.46714488       4.85317735       0.00002447      -0.00000864       0.00001032
H       10.27830271      15.56671631       4.65800490      -0.00002464      -0.00005342      -0.00001305
H        9.25274608      14.42397279       4.37547498       0.00001627       0.00004700       0.00000846
H       10.33927913      12.09866944       4.25191458       0.00002363      -0.00002570       0.00004960
H       13.80719052      16.05377086       5.55938703      -0.00003126       0.00002148       0.00004060
H        9.84372961       8.16399650       6.62026327      -0.00005100      -0.00001250      -0.00000091
H       10.86927938       9.30673061       6.33772319       0.00004652       0.00002828       0.00000624
H       11.78708438      10.62663850       7.96026236      -0.00001560       0.00004644      -0.00006131
H        9.78274419      11.63205594       6.21418191       0.00003019       0.00002781       0.00000549
H       12.85376304      10.26356968       6.81543888      -0.00005250      -0.00000631      -0.00000308
O        8.10335953       9.89424312       4.38998526      -0.00002816       0.00000991       0.00001461
O       13.17553250      15.75245910       4.84773516       0.00003304       0.00001488       0.00001742
O       10.02237313      14.90680768       3.95482810       0.00001306      -0.00000644      -0.00004354
O       12.01869831      13.83646901       6.35226426      -0.00005004      -0.00001778      -0.00003622