6
Properties=species:S:1:pos:R:3 #=T CELL(abcABC):=T 200.00000=T 90.00000=T Step:=T 67=T Bead:=T 0=T positionsangstrom=T cellatomic_unit=T pbc="F F F"
O        0.13634600      -0.96744200       0.24066100
H       -0.08651550      -0.00840496       0.77980979
H        1.22795650      -0.58259096       0.27728969
O        1.42482000       1.38927000       0.92644000
H        1.09617121       1.89202925       0.04524856
H        0.60138008       0.79373109       0.76422512
