36
Lattice="7.718449155771662 9.568987603243005e-06 7.223426511301222e-07 3.8592323620893443 6.684388019376855 1.3154491646953007e-06 6.91975749600343e-07 1.0564359734168506e-06 7.294819794991121" Properties=species:S:1:pos:R:3:forces:R:3 energy=-178.59117582268314 free_energy=-178.59117582268314 stress="-0.000998309941067998 -7.750367868866825e-08 -5.3277907368542946e-08 -7.750367868866825e-08 -0.0009984074570127122 -9.272516547183046e-08 -5.3277907368542946e-08 -9.272516547183046e-08 -0.0009987466767678236" pbc="T T T"
H        1.29460004       2.24240078       1.45060172      -0.00000508      -0.00001147      -0.00001395
H        5.12901592      -0.00003226       1.45067523      -0.00000889       0.00000415      -0.00002878
H        5.15383151       4.44189313       1.45067463       0.00000516      -0.00000619      -0.00002800
H        6.44851883       6.68435578       5.09806111       0.00000361      -0.00000999      -0.00002151
H       10.28288194       4.44184128       5.09804629       0.00002646       0.00004751       0.00005317
H        6.42369465       2.24243541       5.09805953      -0.00000787      -0.00000166      -0.00002096
H        4.21050411      -0.00004292       0.15165655      -0.00000018      -0.00001606       0.00000688
H        1.75385110       3.03784187       0.15158312       0.00001056       0.00001904       0.00002037
H        5.61308618       3.64643204       0.15165853      -0.00001356      -0.00000678       0.00000750
H        7.36703773       6.68433658       3.79905625      -0.00001529       0.00004636      -0.00002603
H        9.82364066       3.64641733       3.79900928       0.00001020       0.00001563      -0.00001849
H        5.96441059       3.03788757       3.79905710       0.00004695       0.00000827      -0.00002528
H        5.95930181       5.88807994       7.18049967      -0.00000818       0.00003482       0.00002449
H        5.95929250       7.48056467       7.18049419      -0.00000637      -0.00001274       0.00000143
H        9.83796217       5.26367837       7.18053278      -0.00002676       0.00004718      -0.00000514
H        7.35785911       2.21684613       7.18049150      -0.00000886      -0.00001112      -0.00000012
H        5.97872167       1.42061294       7.18049720       0.00003275       0.00001005       0.00002792
H        1.73955542       1.42061285       3.53306194      -0.00003039       0.00000477       0.00001826
H        9.47749408       7.48059798       3.53313375      -0.00002630      -0.00001353      -0.00002130
H        9.47748843       5.88810687       3.53313005      -0.00001894       0.00000894      -0.00001999
H        4.21962555       4.46747459       3.53312691       0.00001882      -0.00001367      -0.00002094
H        5.59876116       5.26372366       3.53313077       0.00000288      -0.00002907      -0.00001732
H        0.36041991       2.21685825       3.53305795       0.00001832      -0.00002433       0.00002067
H       11.21708725       4.46743897       7.18052879       0.00005452       0.00000057      -0.00000301
O        1.27903171       2.21542809       0.45498976      -0.00000150       0.00000365       0.00001058
O        5.16014435      -0.00003769       0.45506252      -0.00000355      -0.00001152      -0.00001174
O        5.13826791       4.46884669       0.45506190      -0.00000625      -0.00000664      -0.00001120
O        6.41739218       6.68435900       4.10244759       0.00001841       0.00000663       0.00000311
O        6.43925522       2.21548206       4.10244599      -0.00000426       0.00001774       0.00000345
O        6.44881023       6.68432398       6.83502041      -0.00000361      -0.00000444       0.00003198
O        6.42353496       2.24266230       6.83501946      -0.00000344      -0.00000754       0.00003081
O        1.29473906       2.24265519       3.18757162      -0.00001107      -0.00001723       0.00002150
O        8.98798462       6.68435457       3.18765384      -0.00001544       0.00000050       0.00000368
O        5.15394890       4.44167365       3.18765266       0.00000947      -0.00001038       0.00000167
O       10.29845714       4.46882571       4.10243798      -0.00001387      -0.00002818       0.00002861
O       10.28277044       4.44163413       6.83504301      -0.00001847      -0.00003326      -0.00002235
