36
Lattice="7.740827653581803 8.598415772310364e-06 1.6055562758510693e-06 3.870420768894756 6.703766883887721 3.0744850857812807e-06 1.535780020891816e-06 2.509570446541562e-06 7.315680813775472" Properties=species:S:1:pos:R:3:masses:R:1:forces:R:3 energy=-178.59330738334245 stress="-0.0003121610658473971 9.197444816699945e-08 1.1451631737203003e-08 9.197444816699945e-08 -0.0003120395793463291 1.9315558302164774e-08 1.1451631737203003e-08 1.9315558302164774e-08 -0.00031205444649042035" free_energy=-178.59330738334245 pbc="T T T"
H        1.29821621       2.24866956       1.45206285       2.01410178       0.00000013      -0.00000109       0.00000184
H        5.14415651      -0.00004569       1.45206585       2.01410178      -0.00000087       0.00000161       0.00000035
H        5.16862961       4.45500172       1.45206727       2.01410178       0.00000019      -0.00000103       0.00000065
H        6.46693129       6.70372095       5.10990792       2.01410178       0.00000007       0.00000047       0.00000105
H       10.31286598       4.45500901       5.10991052       2.01410178       0.00000121      -0.00000060      -0.00000242
H        6.44244744       2.24868003       5.10990633       2.01410178       0.00000083      -0.00000016       0.00000116
H        4.22637047      -0.00005428       0.15405197       2.01410178      -0.00000313       0.00000910       0.00000153
H        1.75711017       3.04349299       0.15404806       2.01410178       0.00000097      -0.00000286       0.00000293
H        5.62752005       3.66016995       0.15405533       2.01410178       0.00000412      -0.00000061       0.00000138
H        7.38471636       6.70372677       3.81189350       2.01410178      -0.00000030      -0.00000113       0.00000067
H        9.85397264       3.66018676       3.81189437       2.01410178      -0.00000127      -0.00000211       0.00000143
H        5.98355522       3.04350961       3.81189383       2.01410178       0.00000180       0.00000023       0.00000048
H        5.97855605       5.90810552       7.20070482       2.01410178      -0.00000388       0.00000015       0.00000310
H        5.97855821       7.49932801       7.20070702       2.01410178       0.00000124      -0.00000129       0.00000216
H        9.86803756       5.27575432       7.20070865       2.01410178       0.00000080      -0.00000110      -0.00000067
H        7.37565900       2.22353413       7.20070370       2.01410178      -0.00000025      -0.00000192       0.00000224
H        5.99762151       1.42792004       7.20070331       2.01410178       0.00000052       0.00000009       0.00000293
H        1.74304512       1.42792475       3.54286640       2.01410178       0.00000262      -0.00000122      -0.00000246
H        9.50294850       7.49934373       3.54286824       2.01410178       0.00000102       0.00000020      -0.00000268
H        9.50294887       5.90812093       3.54287071       2.01410178       0.00000165      -0.00000310      -0.00000091
H        4.23542437       4.48014965       3.54286723       2.01410178      -0.00000296      -0.00000014      -0.00000007
H        5.61346366       5.27576129       3.54286663       2.01410178       0.00000101      -0.00000086      -0.00000222
H        0.36500696       2.22353538       3.54286471       2.01410178      -0.00000149       0.00000232      -0.00000240
H       11.24607605       4.48014388       7.20070710       2.01410178      -0.00000401      -0.00000231      -0.00000137
O        1.28249370       2.22143164       0.45698746      15.99900000      -0.00000385       0.00000053       0.00000035
O        5.17560473      -0.00005025       0.45699020      15.99900000      -0.00000174       0.00000004      -0.00000053
O        5.15290426       4.48223244       0.45699156      15.99900000       0.00000734       0.00000264      -0.00000027
O        6.43548209       6.70372363       4.11483241      15.99900000      -0.00000211       0.00000323      -0.00000047
O        6.45817102       2.22144710       4.11483076      15.99900000       0.00000105      -0.00000206      -0.00000038
O        6.46810707       6.70371637       6.85535487      15.99900000      -0.00000007      -0.00000095      -0.00000083
O        6.44186410       2.24968984       6.85535341      15.99900000      -0.00000005       0.00000087      -0.00000047
O        1.29880135       2.24969259       3.19751324      15.99900000       0.00000083       0.00000070      -0.00000186
O        9.01340038       6.70373159       3.19751611      15.99900000       0.00000070      -0.00000209      -0.00000143
O        5.16921848       4.45399333       3.19751487      15.99900000      -0.00000256      -0.00000026      -0.00000309
O       10.32858945       4.48224706       4.11483472      15.99900000      -0.00000011       0.00000136      -0.00000137
O       10.31228153       4.45398647       6.85535480      15.99900000       0.00000055       0.00000337       0.00000164
