3
Properties=species:S:1:pos:R:3:forces:R:3 energy=-14.16919252065359 pbc="F F F"
H       -0.00000000      -0.05333443      -0.36015274       0.00000000      -0.01800995      -0.01515347
O       -0.00000000       0.71738743       0.23245391      -0.00000000       0.00848623       0.03486758
H       -0.00000000       0.33594700       1.12769883      -0.00000000       0.00952371      -0.01971410
