30
Lattice="6.000033051450307 -0.028957124556186795 -0.017016645075469045 -0.06227912226707493 5.991076558681114 -0.012875855631668421 0.0133652594769255 -0.04200747197525867 5.65283019411126" Properties=species:S:1:pos:R:3:forces:R:3 energy=-149.1419268093687 stress="4.053800623616405e-06 -6.241026806732727e-08 -3.9710735215104466e-06 -6.241026806732727e-08 1.0811795967922977e-06 2.669747561625427e-06 -3.9710735215104466e-06 2.669747561625427e-06 -5.893547601772825e-06" pbc="T T T"
H        2.61246962       1.44929218       0.03532083       0.00004287      -0.00001452       0.00001793
H        3.09454942       4.39672755       5.51521634      -0.00005769       0.00002900      -0.00005791
H        0.17955159       1.43527841       0.03627235      -0.00004997      -0.00004874      -0.00002174
H        5.52747296       4.41074658       5.51425340       0.00001768       0.00004140       0.00002862
H        1.33258192       2.16216591       1.96273295       0.00003348       0.00002228       0.00002662
H        4.37443112       3.68385932       3.58779348      -0.00002184      -0.00002855      -0.00001564
H        1.37296621       0.61694265       1.88650870      -0.00002684       0.00002118       0.00002102
H        4.33404702       5.22908158       3.66401264       0.00003740      -0.00002111      -0.00000868
H        1.38392400       4.04689116       3.45303665      -0.00003912      -0.00000108       0.00000898
H        4.32308980       1.79912783       2.09749326       0.00005993       0.00001350      -0.00002486
H        4.03044286       1.41292975       4.86150566       0.00002557      -0.00002128      -0.00001925
H        1.67656392       4.43308865       0.68901077       0.00001326       0.00003314       0.00006533
H        2.11547224       2.66879624       3.91155120      -0.00002043      -0.00000959      -0.00002614
H        3.59155787       3.17722866       1.63897022      -0.00003007      -0.00000471       0.00004862
H        2.16413959       0.21353944       3.91574337      -0.00002801       0.00002049       0.00008634
H        3.54287943       5.63248148       1.63478000       0.00002728      -0.00001606      -0.00008145
H        0.62522071       0.11992390       3.92001694      -0.00004894       0.00002733      -0.00000989
H        5.08180145       5.72609316       1.63050782       0.00002309      -0.00001499       0.00000954
H        0.13726636       2.13045898       4.30078603       0.00002404      -0.00002507      -0.00001971
H        5.56974315       3.71556501       1.24974296      -0.00000266       0.00001690       0.00000669
O        1.36258806       1.41551387       1.29471708      -0.00002170       0.00001749       0.00001554
O        4.34442971       4.43051267       4.25580786       0.00001289      -0.00002143      -0.00000927
O        1.33291973       3.04543927       3.42643997      -0.00001219      -0.00000906      -0.00003738
O        4.37410067       2.80058006       2.12409164       0.00000412       0.00002000       0.00001612
O        1.35302770       5.71597281       3.44768167      -0.00001211       0.00000479       0.00005537
O        4.35399320       0.13004641       2.10284082      -0.00000127       0.00000917      -0.00004332
O        5.70153458       1.36508152       4.80092020      -0.00000528      -0.00003155      -0.00004443
O        0.00547906       4.48094235       0.74961108       0.00001889       0.00002258       0.00002724
O        3.03113130       1.42009065       4.78142125       0.00001640      -0.00002825       0.00000636
O        2.67587571       4.42593801       0.76910973       0.00002123      -0.00000326      -0.00002065
