288
Lattice="13.715827110688103 0.0930872841418472 -5.8087712572676535 -8.795930435945657 10.524452267418082 -5.808773069359845 0.04313365656748425 0.09308336979103071 14.89509307745287" Properties=species:S:1:pos:R:3:forces:R:3 energy=-1433.9809604881104 stress="1.5904687105088716e-07 1.1323954397877284e-09 -8.245119254406412e-09 1.1323954397877284e-09 6.188676762285822e-08 2.771641901505546e-07 -8.245119254406412e-09 2.771641901505546e-07 1.3418109727405397e-07" pbc="T T T"
H        6.33662447      10.14340847       8.41061744      -0.00000077       0.00003552      -0.00000278
H        6.52935864      11.21804299       9.53037916       0.00001707      -0.00002093      -0.00004162
H       12.42204220       7.44947747      11.61818638      -0.00001471       0.00001659      -0.00003084
H       12.74534063       7.36177477      13.18103486       0.00003501       0.00002060       0.00004053
H       10.32711891       6.22609938      15.16940467      -0.00002522      -0.00004723      -0.00000334
H       11.62994840       7.06785707      15.36915609       0.00002379       0.00001657       0.00003652
H       10.92544199       9.12730438       8.40160585       0.00000549       0.00004175      -0.00004595
H       12.25444453       9.31729025       7.53419309      -0.00004221      -0.00001200       0.00002576
H       14.35674708       6.73808161       7.39437381      -0.00001642       0.00000056       0.00000300
H       14.46193660       8.27623667       7.13197892      -0.00002222       0.00000234       0.00000666
H        8.84965490       9.07013598      11.73167751       0.00001417      -0.00002796      -0.00001163
H        7.77148539      10.20689030      11.41537503      -0.00003693       0.00001511      -0.00002722
H       15.21221366       7.13601884      12.81255358       0.00004297       0.00002044       0.00005008
H       15.01948264       6.06139100      11.69279951      -0.00000424      -0.00003036      -0.00002269
H        9.12680237       9.82995133       9.60499211      -0.00002190      -0.00000978      -0.00001875
H        8.80350054       9.91765569       8.04213669      -0.00003324      -0.00002435       0.00001799
H       11.22172374      11.05333315       6.05376929       0.00001638       0.00002796       0.00001250
H        9.91889238      10.21157348       5.85401829      -0.00000367      -0.00000917      -0.00003129
H       10.62339840       8.15212490      12.82157234       0.00001811      -0.00001882       0.00000642
H        9.29440039       7.96214140      13.68898064      -0.00000152       0.00001327      -0.00000944
H        7.19209473      10.54135146      13.82880122       0.00001001      -0.00003975      -0.00000873
H        7.08690453       9.00319130      14.09119718       0.00002407       0.00002883      -0.00003175
H       12.69918470       8.20929754       9.49149786       0.00000999      -0.00000518       0.00000783
H       13.77735663       7.07253869       9.80780227       0.00001679       0.00000788       0.00000757
O        5.91090255      10.48239860       9.25889843      -0.00003361       0.00000542       0.00000079
O       11.99879130       7.31457704      12.52156357       0.00002701       0.00001529       0.00001520
O       11.31688312       6.12044027      15.32730702      -0.00000474       0.00001206       0.00000160
O       11.82329202       8.71719236       8.20387181      -0.00000247      -0.00003634       0.00002639
O       14.21908641       7.42491277       6.66977578      -0.00002429       0.00000487      -0.00000642
O        8.31706718       9.49001066      10.98771126      -0.00000717       0.00000195      -0.00000909
O       15.63794340       6.79703203      11.96427596      -0.00002168      -0.00001406       0.00001282
O        9.55004761       9.96485448       8.70161191       0.00001071      -0.00001311      -0.00001867
O       10.23195884      11.15898995       5.89586987       0.00000235       0.00000030      -0.00001246
O        9.72554810       8.56223834      13.01929922       0.00001469       0.00002479      -0.00000042
O        7.32975554       9.85451707      14.55339692       0.00002577      -0.00000216       0.00003048
O       13.23177397       7.78942035      10.23546249       0.00000260      -0.00000091       0.00003090
H        6.35819130      10.18995015      15.85816398      -0.00000077       0.00003552      -0.00000278
H        6.55092547      11.26458468      16.97792569       0.00001707      -0.00002093      -0.00004162
H       12.44360903       7.49601915      19.06573292      -0.00001471       0.00001659      -0.00003084
H       12.76690746       7.40831646      20.62858140       0.00003501       0.00002060       0.00004053
H       10.34868574       6.27264107      22.61695121      -0.00002522      -0.00004723      -0.00000334
H       11.65151522       7.11439875      22.81670263       0.00002379       0.00001657       0.00003652
H       10.94700882       9.17384607      15.84915239       0.00000549       0.00004175      -0.00004595
H       12.27601136       9.36383194      14.98173963      -0.00004221      -0.00001200       0.00002576
H       14.37831391       6.78462330      14.84192035      -0.00001642       0.00000056       0.00000300
H       14.48350343       8.32277836      14.57952546      -0.00002222       0.00000234       0.00000666
H        8.87122172       9.11667766      19.17922405       0.00001417      -0.00002796      -0.00001163
H        7.79305221      10.25343198      18.86292157      -0.00003693       0.00001511      -0.00002722
H       15.23378049       7.18256052      20.26010012       0.00004297       0.00002044       0.00005008
H       15.04104947       6.10793268      19.14034605      -0.00000424      -0.00003036      -0.00002269
H        9.14836920       9.87649302      17.05253864      -0.00002190      -0.00000978      -0.00001875
H        8.82506737       9.96419737      15.48968323      -0.00003324      -0.00002435       0.00001799
H       11.24329057      11.09987484      13.50131583       0.00001638       0.00002796       0.00001250
H        9.94045921      10.25811517      13.30156483      -0.00000367      -0.00000917      -0.00003129
H       10.64496523       8.19866658      20.26911888       0.00001811      -0.00001882       0.00000642
H        9.31596722       8.00868309      21.13652718      -0.00000152       0.00001327      -0.00000944
H        7.21366156      10.58789314      21.27634776       0.00001001      -0.00003975      -0.00000873
H        7.10847136       9.04973299      21.53874372       0.00002407       0.00002883      -0.00003175
H       12.72075153       8.25583922      16.93904440       0.00000999      -0.00000518       0.00000783
H       13.79892346       7.11908037      17.25534881       0.00001679       0.00000788       0.00000757
O        5.93246938      10.52894029      16.70644496      -0.00003361       0.00000542       0.00000079
O       12.02035812       7.36111872      19.96911011       0.00002701       0.00001529       0.00001520
O       11.33844994       6.16698195      22.77485356      -0.00000474       0.00001206       0.00000160
O       11.84485885       8.76373404      15.65141835      -0.00000247      -0.00003634       0.00002639
O       14.24065324       7.47145446      14.11732232      -0.00002429       0.00000487      -0.00000642
O        8.33863401       9.53655235      18.43525780      -0.00000717       0.00000196      -0.00000909
O       15.65951023       6.84357371      19.41182250      -0.00002168      -0.00001406       0.00001282
O        9.57161444      10.01139616      16.14915845       0.00001071      -0.00001311      -0.00001867
O       10.25352567      11.20553163      13.34341641       0.00000235       0.00000030      -0.00001246
O        9.74711492       8.60878002      20.46684576       0.00001469       0.00002479      -0.00000042
O        7.35132237       9.90105876      22.00094346       0.00002577      -0.00000216       0.00003048
O       13.25334080       7.83596204      17.68300903       0.00000260      -0.00000091       0.00003090
H        1.93865926      15.40563460       5.50623091      -0.00000077       0.00003552      -0.00000278
H        2.13139342      16.48026913       6.62599262       0.00001707      -0.00002093      -0.00004162
H        8.02407698      12.71170360       8.71379985      -0.00001471       0.00001659      -0.00003084
H        8.34737542      12.62400091      10.27664833       0.00003501       0.00002060       0.00004053
H        5.92915369      11.48832551      12.26501813      -0.00002522      -0.00004723      -0.00000334
H        7.23198318      12.33008320      12.46476956       0.00002379       0.00001657       0.00003652
H        6.52747677      14.38953051       5.49721931       0.00000549       0.00004175      -0.00004595
H        7.85647931      14.57951638       4.62980656      -0.00004221      -0.00001200       0.00002576
H        9.95878186      12.00030775       4.48998727      -0.00001642       0.00000056       0.00000300
H       10.06397138      13.53846281       4.22759238      -0.00002222       0.00000234       0.00000666
H        4.45168968      14.33236211       8.82729098       0.00001417      -0.00002796      -0.00001163
H        3.37352017      15.46911643       8.51098850      -0.00003693       0.00001511      -0.00002722
H       10.81424844      12.39824497       9.90816704       0.00004297       0.00002044       0.00005008
H       10.62151742      11.32361713       8.78841298      -0.00000424      -0.00003036      -0.00002269
H        4.72883715      15.09217747       6.70060557      -0.00002190      -0.00000978      -0.00001875
H        4.40553532      15.17988182       5.13775016      -0.00003324      -0.00002435       0.00001799
H        6.82375852      16.31555928       3.14938276       0.00001638       0.00002796       0.00001250
H        5.52092716      15.47379962       2.94963176      -0.00000367      -0.00000917      -0.00003129
H        6.22543318      13.41435103       9.91718581       0.00001811      -0.00001882       0.00000642
H        4.89643518      13.22436754      10.78459411      -0.00000152       0.00001327      -0.00000944
H        2.79412951      15.80357759      10.92441468       0.00001001      -0.00003975      -0.00000873
H        2.68893931      14.26541744      11.18681065       0.00002407       0.00002883      -0.00003175
H        8.30121948      13.47152367       6.58711133       0.00000999      -0.00000518       0.00000783
H        9.37939141      12.33476482       6.90341574       0.00001679       0.00000788       0.00000757
O        1.51293733      15.74462473       6.35451189      -0.00003361       0.00000542       0.00000079
O        7.60082608      12.57680317       9.61717704       0.00002701       0.00001529       0.00001520
O        6.91891790      11.38266640      12.42292049      -0.00000474       0.00001206       0.00000160
O        7.42532681      13.97941849       5.29948528      -0.00000247      -0.00003634       0.00002639
O        9.82112120      12.68713891       3.76538925      -0.00002429       0.00000487      -0.00000642
O        3.91910196      14.75223679       8.08332473      -0.00000717       0.00000195      -0.00000909
O       11.23997818      12.05925816       9.05988942      -0.00002168      -0.00001406       0.00001282
O        5.15208239      15.22708061       5.79722538       0.00001071      -0.00001311      -0.00001867
O        5.83399362      16.42121608       2.99148334       0.00000235       0.00000030      -0.00001246
O        5.32758288      13.82446447      10.11491269       0.00001469       0.00002479      -0.00000042
O        2.93179032      15.11674321      11.64901039       0.00002577      -0.00000216       0.00003048
O        8.83380875      13.05164649       7.33107596       0.00000260      -0.00000091       0.00003090
H        1.96022608      15.45217629      12.95377745      -0.00000077       0.00003552      -0.00000278
H        2.15296025      16.52681081      14.07353916       0.00001707      -0.00002093      -0.00004162
H        8.04564381      12.75824529      16.16134638      -0.00001471       0.00001659      -0.00003084
H        8.36894224      12.67054259      17.72419487       0.00003501       0.00002060       0.00004053
H        5.95072052      11.53486720      19.71256467      -0.00002522      -0.00004723      -0.00000334
H        7.25355001      12.37662489      19.91231610       0.00002379       0.00001657       0.00003652
H        6.54904360      14.43607220      12.94476585       0.00000549       0.00004175      -0.00004595
H        7.87804614      14.62605807      12.07735310      -0.00004221      -0.00001200       0.00002576
H        9.98034869      12.04684943      11.93753381      -0.00001642       0.00000056       0.00000300
H       10.08553821      13.58500449      11.67513892      -0.00002222       0.00000234       0.00000666
H        4.47325651      14.37890380      16.27483752       0.00001417      -0.00002796      -0.00001163
H        3.39508700      15.51565811      15.95853503      -0.00003693       0.00001511      -0.00002722
H       10.83581527      12.44478666      17.35571358       0.00004297       0.00002044       0.00005008
H       10.64308425      11.37015882      16.23595952      -0.00000424      -0.00003036      -0.00002269
H        4.75040398      15.13871915      14.14815211      -0.00002190      -0.00000978      -0.00001875
H        4.42710215      15.22642351      12.58529670      -0.00003324      -0.00002435       0.00001799
H        6.84532535      16.36210097      10.59692929       0.00001638       0.00002796       0.00001250
H        5.54249399      15.52034130      10.39717830      -0.00000367      -0.00000917      -0.00003129
H        6.24700001      13.46089271      17.36473235       0.00001811      -0.00001882       0.00000642
H        4.91800200      13.27090922      18.23214065      -0.00000152       0.00001327      -0.00000944
H        2.81569634      15.85011928      18.37196122       0.00001001      -0.00003975      -0.00000873
H        2.71050614      14.31195912      18.63435719       0.00002407       0.00002883      -0.00003175
H        8.32278631      13.51806536      14.03465787       0.00000999      -0.00000518       0.00000783
H        9.40095824      12.38130651      14.35096228       0.00001679       0.00000788       0.00000757
O        1.53450416      15.79116642      13.80205843      -0.00003361       0.00000542       0.00000079
O        7.62239291      12.62334485      17.06472358       0.00002701       0.00001529       0.00001520
O        6.94048473      11.42920809      19.87046702      -0.00000474       0.00001206       0.00000160
O        7.44689364      14.02596018      12.74703181      -0.00000247      -0.00003634       0.00002639
O        9.84268802      12.73368059      11.21293579      -0.00002429       0.00000487      -0.00000642
O        3.94066879      14.79877848      15.53087127      -0.00000717       0.00000195      -0.00000909
O       11.26154501      12.10579984      16.50743596      -0.00002168      -0.00001406       0.00001282
O        5.17364922      15.27362229      13.24477192       0.00001071      -0.00001311      -0.00001867
O        5.85556045      16.46775776      10.43902988       0.00000235       0.00000030      -0.00001246
O        5.34914971      13.87100615      17.56245923       0.00001469       0.00002479      -0.00000042
O        2.95335715      15.16328489      19.09655693       0.00002577      -0.00000216       0.00003048
O        8.85537558      13.09818817      14.77862250       0.00000260      -0.00000091       0.00003090
H       13.19453803      10.18995211       5.50623181      -0.00000077       0.00003552      -0.00000278
H       13.38727219      11.26458663       6.62599353       0.00001707      -0.00002093      -0.00004162
H       19.27995576       7.49602111       8.71380075      -0.00001471       0.00001659      -0.00003084
H       19.60325419       7.40831841      10.27664923       0.00003501       0.00002060       0.00004053
H       17.18503246       6.27264302      12.26501904      -0.00002522      -0.00004723      -0.00000334
H       18.48786195       7.11440071      12.46477046       0.00002379       0.00001657       0.00003652
H       17.78335555       9.17384802       5.49722022       0.00000549       0.00004175      -0.00004595
H       19.11235809       9.36383389       4.62980746      -0.00004221      -0.00001200       0.00002576
H       21.21466064       6.78462525       4.48998818      -0.00001642       0.00000056       0.00000300
H       21.31985015       8.32278031       4.22759329      -0.00002222       0.00000234       0.00000666
H       15.70756845       9.11667962       8.82729189       0.00001417      -0.00002796      -0.00001163
H       14.62939894      10.25343394       8.51098940      -0.00003693       0.00001511      -0.00002722
H       22.07012722       7.18256248       9.90816795       0.00004297       0.00002044       0.00005008
H       21.87739620       6.10793464       8.78841388      -0.00000424      -0.00003036      -0.00002269
H       15.98471593       9.87649497       6.70060648      -0.00002190      -0.00000978      -0.00001875
H       15.66141410       9.96419933       5.13775107      -0.00003324      -0.00002435       0.00001799
H       18.07963730      11.09987679       3.14938366       0.00001638       0.00002796       0.00001250
H       16.77680593      10.25811713       2.94963267      -0.00000367      -0.00000917      -0.00003129
H       17.48131196       8.19866854       9.91718672       0.00001811      -0.00001882       0.00000642
H       16.15231395       8.00868504      10.78459502      -0.00000152       0.00001327      -0.00000944
H       14.05000829      10.58789510      10.92441559       0.00001001      -0.00003975      -0.00000873
H       13.94481808       9.04973495      11.18681155       0.00002407       0.00002883      -0.00003175
H       19.55709826       8.25584118       6.58711223       0.00000999      -0.00000518       0.00000783
H       20.63527018       7.11908233       6.90341664       0.00001679       0.00000788       0.00000757
O       12.76881610      10.52894224       6.35451280      -0.00003361       0.00000542       0.00000079
O       18.85670485       7.36112068       9.61717794       0.00002701       0.00001529       0.00001520
O       18.17479667       6.16698391      12.42292139      -0.00000474       0.00001206       0.00000160
O       18.68120558       8.76373600       5.29948618      -0.00000247      -0.00003634       0.00002639
O       21.07699997       7.47145642       3.76539015      -0.00002429       0.00000487      -0.00000642
O       15.17498073       9.53655430       8.08332563      -0.00000717       0.00000195      -0.00000909
O       22.49585696       6.84357567       9.05989033      -0.00002168      -0.00001406       0.00001282
O       16.40796117      10.01139812       5.79722628       0.00001071      -0.00001311      -0.00001867
O       17.08987240      11.20553359       2.99148424       0.00000235       0.00000030      -0.00001246
O       16.58346165       8.60878198      10.11491359       0.00001469       0.00002479      -0.00000042
O       14.18766909       9.90106071      11.64901129       0.00002577      -0.00000216       0.00003048
O       20.08968752       7.83596400       7.33107687       0.00000260      -0.00000091       0.00003090
H       13.21610486      10.23649379      12.95377835      -0.00000077       0.00003552      -0.00000278
H       13.40883902      11.31112832      14.07354007       0.00001707      -0.00002093      -0.00004162
H       19.30152259       7.54256280      16.16134729      -0.00001471       0.00001659      -0.00003084
H       19.62482102       7.45486010      17.72419577       0.00003501       0.00002060       0.00004053
H       17.20659929       6.31918471      19.71256558      -0.00002522      -0.00004723      -0.00000334
H       18.50942878       7.16094239      19.91231700       0.00002379       0.00001657       0.00003652
H       17.80492237       9.22038971      12.94476676       0.00000549       0.00004175      -0.00004595
H       19.13392492       9.41037558      12.07735400      -0.00004221      -0.00001200       0.00002576
H       21.23622746       6.83116694      11.93753472      -0.00001642       0.00000056       0.00000300
H       21.34141698       8.36932200      11.67513983      -0.00002222       0.00000234       0.00000666
H       15.72913528       9.16322130      16.27483842       0.00001417      -0.00002796      -0.00001163
H       14.65096577      10.29997562      15.95853594      -0.00003693       0.00001511      -0.00002722
H       22.09169404       7.22910417      17.35571449       0.00004297       0.00002044       0.00005008
H       21.89896302       6.15447632      16.23596042      -0.00000424      -0.00003036      -0.00002269
H       16.00628276       9.92303666      14.14815302      -0.00002190      -0.00000978      -0.00001875
H       15.68298092      10.01074101      12.58529760      -0.00003324      -0.00002435       0.00001799
H       18.10120412      11.14641848      10.59693020       0.00001638       0.00002796       0.00001250
H       16.79837276      10.30465881      10.39717920      -0.00000367      -0.00000917      -0.00003129
H       17.50287878       8.24521022      17.36473325       0.00001811      -0.00001882       0.00000642
H       16.17388078       8.05522673      18.23214156      -0.00000152       0.00001327      -0.00000944
H       14.07157512      10.63443679      18.37196213       0.00001001      -0.00003975      -0.00000873
H       13.96638491       9.09627663      18.63435809       0.00002407       0.00002883      -0.00003175
H       19.57866509       8.30238287      14.03465877       0.00000999      -0.00000518       0.00000783
H       20.65683701       7.16562402      14.35096318       0.00001679       0.00000788       0.00000757
O       12.79038293      10.57548393      13.80205934      -0.00003361       0.00000542       0.00000079
O       18.87827168       7.40766236      17.06472448       0.00002701       0.00001529       0.00001520
O       18.19636350       6.21352560      19.87046793      -0.00000474       0.00001206       0.00000160
O       18.70277241       8.81027769      12.74703272      -0.00000247      -0.00003634       0.00002639
O       21.09856680       7.51799810      11.21293669      -0.00002429       0.00000487      -0.00000642
O       15.19654756       9.58309599      15.53087217      -0.00000717       0.00000195      -0.00000909
O       22.51742378       6.89011735      16.50743687      -0.00002168      -0.00001406       0.00001282
O       16.42952799      10.05793980      13.24477282       0.00001071      -0.00001311      -0.00001867
O       17.11143922      11.25207527      10.43903078       0.00000235       0.00000030      -0.00001246
O       16.60502848       8.65532366      17.56246013       0.00001469       0.00002479      -0.00000042
O       14.20923592       9.94760240      19.09655783       0.00002577      -0.00000216       0.00003048
O       20.11125435       7.88250568      14.77862340       0.00000260      -0.00000091       0.00003090
H        8.79657281      15.45217824       2.60184528      -0.00000077       0.00003552      -0.00000278
H        8.98930698      16.52681277       3.72160699       0.00001707      -0.00002093      -0.00004162
H       14.88199054      12.75824725       5.80941422      -0.00001471       0.00001659      -0.00003084
H       15.20528897      12.67054455       7.37226270       0.00003501       0.00002060       0.00004053
H       12.78706725      11.53486916       9.36063251      -0.00002522      -0.00004723      -0.00000334
H       14.08989673      12.37662684       9.56038393       0.00002379       0.00001657       0.00003652
H       13.38539033      14.43607416       2.59283369       0.00000549       0.00004175      -0.00004595
H       14.71439287      14.62606003       1.72542093      -0.00004221      -0.00001200       0.00002576
H       16.81669542      12.04685139       1.58560165      -0.00001642       0.00000056       0.00000300
H       16.92188494      13.58500645       1.32320676      -0.00002222       0.00000234       0.00000666
H       11.30960323      14.37890575       5.92290535       0.00001417      -0.00002796      -0.00001163
H       10.23143372      15.51566007       5.60660287      -0.00003693       0.00001511      -0.00002722
H       17.67216200      12.44478861       7.00378141       0.00004297       0.00002044       0.00005008
H       17.47943098      11.37016077       5.88402735      -0.00000424      -0.00003036      -0.00002269
H       11.58675071      15.13872111       3.79621994      -0.00002190      -0.00000978      -0.00001875
H       11.26344888      15.22642546       2.23336453      -0.00003324      -0.00002435       0.00001799
H       13.68167208      16.36210293       0.24499713       0.00001638       0.00002796       0.00001250
H       12.37884072      15.52034326       0.04524613      -0.00000367      -0.00000917      -0.00003129
H       13.08334674      13.46089467       7.01280018       0.00001811      -0.00001882       0.00000642
H       11.75434873      13.27091118       7.88020848      -0.00000152       0.00001327      -0.00000944
H        9.65204307      15.85012123       8.02002905       0.00001001      -0.00003975      -0.00000873
H        9.54685287      14.31196108       8.28242502       0.00002407       0.00002883      -0.00003175
H       15.15913304      13.51806731       3.68272570       0.00000999      -0.00000518       0.00000783
H       16.23730496      12.38130846       3.99903011       0.00001679       0.00000788       0.00000757
O        8.37085089      15.79116838       3.45012626      -0.00003361       0.00000542       0.00000079
O       14.45873963      12.62334681       6.71279141       0.00002701       0.00001529       0.00001520
O       13.77683145      11.42921004       9.51853486      -0.00000474       0.00001206       0.00000160
O       14.28324036      14.02596214       2.39509965      -0.00000247      -0.00003634       0.00002639
O       16.67903475      12.73368255       0.86100362      -0.00002429       0.00000487      -0.00000642
O       10.77701552      14.79878044       5.17893910      -0.00000717       0.00000195      -0.00000909
O       18.09789174      12.10580180       6.15550379      -0.00002168      -0.00001406       0.00001282
O       12.00999595      15.27362425       2.89283975       0.00001071      -0.00001311      -0.00001867
O       12.69190718      16.46775972       0.08709771       0.00000235       0.00000030      -0.00001246
O       12.18549643      13.87100811       7.21052706       0.00001469       0.00002479      -0.00000042
O        9.78970388      15.16328685       8.74462476       0.00002577      -0.00000216       0.00003048
O       15.69172231      13.09819013       4.42669033       0.00000260      -0.00000091       0.00003090
H        8.81813964      15.49871993      10.04939182      -0.00000077       0.00003552      -0.00000278
H        9.01087380      16.57335445      11.16915353       0.00001707      -0.00002093      -0.00004162
H       14.90355737      12.80478893      13.25696076      -0.00001471       0.00001659      -0.00003084
H       15.22685580      12.71708623      14.81980924       0.00003501       0.00002060       0.00004053
H       12.80863407      11.58141084      16.80817904      -0.00002522      -0.00004723      -0.00000334
H       14.11146356      12.42316853      17.00793047       0.00002379       0.00001657       0.00003652
H       13.40695716      14.48261584      10.04038023       0.00000549       0.00004175      -0.00004595
H       14.73595970      14.67260171       9.17296747      -0.00004221      -0.00001200       0.00002576
H       16.83826225      12.09339307       9.03314818      -0.00001642       0.00000056       0.00000300
H       16.94345176      13.63154813       8.77075329      -0.00002222       0.00000234       0.00000666
H       11.33117006      14.42544744      13.37045189       0.00001417      -0.00002796      -0.00001163
H       10.25300055      15.56220176      13.05414941      -0.00003693       0.00001511      -0.00002722
H       17.69372883      12.49133030      14.45132795       0.00004297       0.00002044       0.00005008
H       17.50099781      11.41670246      13.33157389      -0.00000424      -0.00003036      -0.00002269
H       11.60831754      15.18526279      11.24376648      -0.00002190      -0.00000978      -0.00001875
H       11.28501571      15.27296715       9.68091107      -0.00003324      -0.00002435       0.00001799
H       13.70323891      16.40864461       7.69254367       0.00001638       0.00002796       0.00001250
H       12.40040755      15.56688495       7.49279267      -0.00000367      -0.00000917      -0.00003129
H       13.10491357      13.50743636      14.46034672       0.00001811      -0.00001882       0.00000642
H       11.77591556      13.31745286      15.32775502      -0.00000152       0.00001327      -0.00000944
H        9.67360990      15.89666292      15.46757559       0.00001001      -0.00003975      -0.00000873
H        9.56841969      14.35850276      15.72997156       0.00002407       0.00002883      -0.00003175
H       15.18069987      13.56460900      11.13027224       0.00000999      -0.00000518       0.00000783
H       16.25887179      12.42785015      11.44657665       0.00001679       0.00000788       0.00000757
O        8.39241771      15.83771006      10.89767280      -0.00003361       0.00000542       0.00000079
O       14.48030646      12.66988850      14.16033795       0.00002701       0.00001529       0.00001520
O       13.79839828      11.47575173      16.96608140      -0.00000474       0.00001206       0.00000160
O       14.30480719      14.07250382       9.84264619      -0.00000247      -0.00003634       0.00002639
O       16.70060158      12.78022423       8.30855016      -0.00002429       0.00000487      -0.00000642