48
Lattice="7.30964937741375 -0.025265448465397133 0.0001795586070517663 2.4642987712317703 6.881776161410157 0.00017991462872532504 2.4813792515915694 1.7407090358171862 6.667956598290908" Properties=species:S:1:pos:R:3:forces:R:3 energy=-238.75797898285344 stress="-1.3809047812113687e-06 -6.627883553698604e-06 5.0213941973848595e-06 -6.627883553698604e-06 2.8026101768731035e-06 3.4070801279051144e-06 5.0213941973848595e-06 3.4070801279051144e-06 -2.497825061306344e-06" pbc="T T T"
H        6.61248183       7.08995624       5.94577261      -0.00002234      -0.00003755      -0.00002637
H        7.69107393       7.89234736       5.03776633      -0.00000761       0.00001633      -0.00005055
H        3.29735032       1.88834645       4.49939431       0.00001189      -0.00000031       0.00001305
H        6.94270430       5.92798650       4.25241216       0.00001983       0.00000920       0.00001743
H        9.09479819       4.89832109       6.40356754      -0.00001301      -0.00004944       0.00002652
H        5.66153091       1.43665397       0.69128141      -0.00002803       0.00004654       0.00000883
H        9.80921192       3.20383987       4.86650953       0.00004459       0.00002141       0.00000995
H        8.09578119       4.40708036       5.25460469      -0.00001981       0.00003679       0.00001203
H        7.53337500       3.80908955       1.53253475       0.00002465       0.00002343      -0.00001966
H        6.54422721       5.01560624       1.16559564      -0.00001352       0.00000102       0.00001599
H       10.75359289       7.17743066       6.65556182       0.00001761      -0.00001917       0.00002659
H        8.50385295       7.32328702       1.89027085       0.00003588       0.00000149      -0.00000875
H        6.37559989       7.12860035       1.70378255       0.00000858      -0.00004087       0.00001207
H        5.30624369       2.65620349       2.38001457      -0.00002305       0.00000928       0.00002334
H       10.10411002       5.99784626       3.14674454       0.00001707       0.00002569       0.00002028
H        2.87484043       4.96271516       1.26442030      -0.00000407      -0.00003183      -0.00004538
H        8.60075329       5.46081336       2.97739042      -0.00002700       0.00001717       0.00000859
H        4.46293218       5.33785121       4.59840157      -0.00001876      -0.00006021      -0.00007807
H        5.25398562       6.38752879       2.61179474       0.00001463      -0.00000465      -0.00003616
H        4.15844682       6.86668722       4.72198722      -0.00001371       0.00000593       0.00004711
H        5.43265388       4.90133158       6.48054141       0.00000389      -0.00002590       0.00003956
H        4.20875204       4.15601953       1.38800723      -0.00003880       0.00003343       0.00006862
H        6.13425484       2.94547275       5.22407007       0.00000829       0.00003437      -0.00002902
H        6.94130677       2.25129667       4.02526046      -0.00000403      -0.00003903       0.00001181
H       10.43139763       8.38389065       5.71417782       0.00000069      -0.00001449      -0.00003409
H        4.41597266       3.67053180       6.31118888       0.00003280       0.00001308       0.00001826
H        8.88349801       2.56056480       3.06959230      -0.00001128       0.00001684       0.00000323
H        4.28148803       3.36981690       3.32140224       0.00004089      -0.00001285       0.00002682
H        8.08155033       1.78840698       1.92062816       0.00002623      -0.00000222      -0.00000256
H        1.80950736       0.21177269       0.91825778      -0.00001028      -0.00004257      -0.00001848
H        0.35521502       0.21539110       0.20433396       0.00004964      -0.00000412      -0.00002211
H        6.45110144       4.55930427       3.53849281       0.00000967      -0.00000723      -0.00003770
O        6.81390577       7.40884250       5.02222620      -0.00002983       0.00004728      -0.00000056
O        8.75169150       4.08298218       5.93473864      -0.00000675      -0.00001235      -0.00002573
O        7.20255117       4.37564149       0.77668692       0.00002804       0.00004946       0.00000336
O        5.37738665       1.13318873       1.59832991      -0.00000764      -0.00002557      -0.00000768
O        9.35378378       5.89762296       2.48776415      -0.00000320       0.00000495       0.00002884
O        4.22356925       6.13202370       4.03981855      -0.00000953       0.00001292       0.00002004
O        3.54012121       4.46732345       0.70584272       0.00000859      -0.00002783      -0.00002012
O        6.55923780       2.08740985       4.93230550       0.00001043       0.00001327       0.00002393
O        5.08301713       4.22991873       5.82156579       0.00000905       0.00000700      -0.00000192
O        2.91968810       2.72519562       4.11048615      -0.00000669      -0.00001164      -0.00000324
O        8.00006442       2.51547613       2.60075340      -0.00002577      -0.00003672       0.00002691
O        5.62240536       6.46837334       1.68825211      -0.00004461       0.00001271      -0.00004868
O        1.06755641       0.79690141       0.57668817       0.00000756       0.00000112       0.00001729
O        5.06386304       3.56392158       2.72578210      -0.00002292       0.00002976      -0.00003329
O       11.20241408       7.84700833       6.05993207      -0.00000471       0.00001092       0.00003524
O        7.24035540       5.03117155       3.91085084      -0.00001352       0.00000515      -0.00001556
