36
Lattice="8.368112 0.0 0.0 0.0 8.156852 0.0 0.0 0.0 4.091404" Properties=species:S:1:pos:R:3:forces:R:3 energy=-178.8846129073591 pbc="T T T"
H        4.47962861       6.84056309       1.95081239      -0.00000774      -0.00003322       0.00001929
H        0.75679441       1.64880234       1.04991998       0.00003575      -0.00002106      -0.00001325
H        6.57750599      -0.22714666       3.71265619       0.00000901      -0.00000686       0.00004018
H        6.07174216       3.81947155       1.28847329       0.00003490      -0.00001490       0.00002812
H        3.44575771       4.81049083       1.48964996      -0.00000385      -0.00001932      -0.00004979
H        7.07084001       2.67234832       1.61217389      -0.00002035       0.00002197      -0.00004039
H        3.42726237       6.50804955       3.09562191      -0.00003892       0.00001923      -0.00001055
H        0.73829923       3.34636114       3.53535237      -0.00000007       0.00001992      -0.00005296
H       -0.29557265       1.31628907      -0.09488976       0.00001368       0.00003121       0.00002239
H        6.48042368       4.33738146       3.33417544       0.00000083      -0.00000709       0.00002972
H        5.48132929       5.48450119       3.65787528       0.00000263       0.00001295      -0.00002740
H        8.66368649       5.39471527       2.14059084      -0.00002454       0.00002940      -0.00001729
H        7.62981408      -0.73206490       2.60175546      -0.00000280       0.00002090       0.00003551
H        4.92235424       8.88891701       0.55605447       0.00000063      -0.00002136       0.00002584
H        7.61131890       5.72722750       0.99578113      -0.00004009      -0.00001603       0.00002089
H        2.29636985       7.89789707       0.75722907      -0.00002606      -0.00000667      -0.00003151
H        1.29727378       6.75077437       0.43352825       0.00000757       0.00001586       0.00003671
H        2.39344987       4.30557088       0.37874721       0.00001257       0.00002234      -0.00003333
H        5.97466113       8.38399892       1.66695419       0.00000288       0.00000225       0.00004241
H        1.88768812       0.25895487       2.80293072       0.00000903       0.00000156      -0.00002992
H        2.88678275       1.40607632       2.47923023      -0.00000353      -0.00000024       0.00003344
H        3.88848291       2.76213689       4.18629226       0.00001199      -0.00003184      -0.00000782
H        1.79060762       3.85128105       2.42444975      -0.00002007      -0.00002186      -0.00003725
H        4.94084878       2.42962472       3.04148357       0.00005016       0.00001028       0.00001212
O        0.04706349       2.04937095       0.48443584       0.00003726      -0.00004102       0.00002385
O        5.36065033       8.08212259       0.94430013       0.00000802       0.00005245       0.00006154
O        2.06126481       7.24909809       0.03897160      -0.00002929      -0.00000139       0.00002547
O        4.13699341       6.10748093       2.53013796      -0.00004052       0.00004355       0.00002333
O        2.12279018       0.90775540       2.08467374       0.00004235      -0.00000976       0.00002973
O        7.19151956       0.07472916       2.99000406      -0.00001761      -0.00004796       0.00004735
O        6.24532264       4.98618202       4.05243250      -0.00004714      -0.00001420      -0.00003586
O        6.30684778       3.17067148       2.00672961       0.00002583       0.00000218      -0.00001558
O        8.32104628       6.12779781       1.56126870      -0.00001793      -0.00004565      -0.00004109
O        3.00746424       4.00369701       1.10139942      -0.00002222       0.00004399      -0.00004276
O        1.17659066       4.15315513       3.14709972       0.00003412      -0.00004488      -0.00002978
O        4.23112165       2.02905358       3.60697065       0.00002351       0.00005528      -0.00004137
