6
Properties=species:S:1:pos:R:3:forces:R:3 #=T CELL(abcABC):=T 200.00000=T 90.00000=T Step:=T 67=T Bead:=T 0=T positionsangstrom=T cellatomic_unit=T energy=-28.55564674071921 stress="-inf inf -inf inf inf -inf -inf -inf -inf" free_energy=-28.55564674071921 pbc="F F F"
O        0.14444812      -0.96698338       0.26130228       0.00980849       0.01080239       0.01384745
H       -0.78991379      -0.87252399       0.02039954      -0.00709735      -0.00149997      -0.00485466
H        0.53177326      -1.44986224      -0.48487985      -0.00014973      -0.00460558      -0.00764409
O        2.92619815       4.14755919       1.71158537       0.00156441       0.00873648      -0.00590098
H        3.22451661       4.03380752       2.62699612       0.00547266       0.00162846       0.01253482
H        2.48299206       3.31048945       1.50485016      -0.00959848      -0.01506177      -0.00798253
