6
Properties=species:S:1:pos:R:3:forces:R:3 #=T CELL(abcABC):=T 200.00000=T 90.00000=T Step:=T 67=T Bead:=T 0=T positionsangstrom=T cellatomic_unit=T energy=-28.73675779298783 stress="inf inf inf inf inf inf inf inf inf" free_energy=-28.73675779298783 pbc="F F F"
O        0.14456750      -0.96789709       0.26269477       0.05589429       0.07887663       0.05710263
H       -0.78928927      -0.86810199       0.02206245      -0.01382460       0.03035640       0.00241743
H        0.53531590      -1.44668298      -0.48431618       0.02824463       0.01213454      -0.01368488
O        1.59795858       1.71812916       1.00463033      -0.04845461      -0.07754484      -0.03847534
H        1.89600973       1.60440574       1.91928399       0.00090408      -0.00571933       0.00884104
H        1.15144892       0.87560441       0.79544753      -0.02276378      -0.03810340      -0.01620089
