6
Properties=species:S:1:pos:R:3:forces:R:3 #=T CELL(abcABC):=T 200.00000=T 90.00000=T Step:=T 67=T Bead:=T 0=T positionsangstrom=T cellatomic_unit=T energy=-28.26346608549227 stress="-inf -inf -inf -inf -inf -inf -inf -inf -inf" free_energy=-28.26346608549227 pbc="F F F"
O        0.05925411      -0.82367809      -0.13327405      -0.66609420      -1.00865614      -0.61014006
H       -0.89185929      -1.01183545      -0.08257416      -0.00726561      -0.00809386      -0.00199099
H        0.42746448      -1.59623500      -0.59167393      -0.00524037      -0.01240793      -0.00374790
O        1.18535521       0.88354408       0.88740151       0.67661022       1.01346911       0.63085674
H        1.64936274       1.28383845       1.64113588      -0.00749490      -0.00713685      -0.00885394
H        0.91123319      -0.00628554       1.16265244       0.00948485       0.02282568      -0.00612384
