6
Properties=species:S:1:pos:R:3:forces:R:3 #=T CELL(abcABC):=T 200.00000=T 90.00000=T Step:=T 67=T Bead:=T 0=T positionsangstrom=T cellatomic_unit=T energy=-28.557658214148166 stress="-inf inf -inf inf inf inf -inf inf -inf" free_energy=-28.557658214148166 pbc="F F F"
O        0.14445588      -0.96693945       0.26127269       0.01140728       0.01387178       0.01453348
H       -0.78991576      -0.87253813       0.02041769      -0.00714703      -0.00167028      -0.00481146
H        0.53177559      -1.44987787      -0.48486317      -0.00020998      -0.00476792      -0.00759522
O        2.79340884       3.90468657       1.64089922       0.00005436       0.00590138      -0.00662434
H        3.09170282       3.79087750       2.55631171       0.00545219       0.00153987       0.01258258
H        2.35018673       3.06757499       1.43417041      -0.00955682      -0.01487483      -0.00808504
