6
Properties=species:S:1:pos:R:3:forces:R:3 #=T CELL(abcABC):=T 200.00000=T 90.00000=T Step:=T 67=T Bead:=T 0=T positionsangstrom=T cellatomic_unit=T energy=-28.604980804182283 stress="inf inf inf inf inf inf inf inf inf" free_energy=-28.604980804182283 pbc="F F F"
O        0.14460367      -0.96690534       0.26163071       0.03602858       0.05429300       0.03294197
H       -0.78975670      -0.87144681       0.02105046      -0.00465948       0.00595294      -0.00252284
H        0.53277468      -1.44914563      -0.48454720       0.00486661       0.00179651      -0.00625082
O        1.99665545       2.44741794       1.21677505      -0.02463835      -0.04000220      -0.01893807
H        2.29424856       2.33217091       2.13199117       0.00071440      -0.00848529       0.01159550
H        1.55268662       1.60947496       1.00903792      -0.01231176      -0.01355497      -0.01682574
