18
Lattice="3.063229908698947 5.28564910426239 -0.020100526590529078 -3.0460379029421367 5.295564974691152 -0.028960306820101988 -0.008357011918558907 0.026759814717153847 5.773009306062077" Properties=species:S:1:pos:R:3:forces:R:3 energy=-89.72056032201566 stress="3.031709207156237e-07 -2.1545933860170725e-07 1.660368678560345e-08 -2.1545933860170725e-07 -1.169634976092189e-06 -1.0311161878322852e-07 1.660368678560345e-08 -1.0311161878322852e-07 -3.8184243103317125e-07" pbc="T T T"
H        2.40690610       5.56556551       1.06338070       0.00000106      -0.00001064       0.00000604
H       -2.86741054       5.00328097       2.98276649      -0.00002197       0.00001558      -0.00002034
H        0.26022888       0.73270335       4.93146851      -0.00000207      -0.00003026      -0.00002314
H        1.98539354       4.05448138       1.47495781      -0.00002812       0.00000454       0.00001749
H       -1.34725402       5.39707993       3.38832758       0.00005331       0.00001239      -0.00000885
H       -0.84015047       1.85559158       5.32987826      -0.00003376      -0.00001146      -0.00000814
H        0.73467965       5.70468222       2.46481795       0.00000928      -0.00000761      -0.00002156
H        0.91399874       8.78274852       4.37521567      -0.00003975      -0.00001447      -0.00005299
H       -1.82947924       7.38803419       0.52890668      -0.00004940      -0.00000348       0.00006035
H       -0.65330122       7.19295795       1.62793236       0.00002476      -0.00000613      -0.00000037
H        0.31753397       6.82979083       3.55540794       0.00000891       0.00002997      -0.00001019
H        0.15019314       7.86790339       5.47473821       0.00001848       0.00003338       0.00001751
O       -0.07384449       1.30807998       5.69043691       0.00002286       0.00001066      -0.00000166
O        2.07705092       4.99479949       1.82765831       0.00000285       0.00001485       0.00005390
O       -2.20678541       5.00926375       3.74581151       0.00000442       0.00001681      -0.00000395
O       -0.04461534       6.22971231       2.83016199      -0.00002477      -0.00003177       0.00002445
O        0.84962442       7.84836962       4.74834633       0.00003060      -0.00002737      -0.00000606
O       -0.98740256       7.80247840       0.89711776       0.00002330       0.00000500      -0.00002250
