6
Properties=species:S:1:pos:R:3:forces:R:3 #=T CELL(abcABC):=T 200.00000=T 90.00000=T Step:=T 67=T Bead:=T 0=T positionsangstrom=T cellatomic_unit=T energy=-28.41146180528261 pbc="F F F"
O        0.14474026      -0.96657900       0.26161521       0.05690605       0.07702507       0.06093675
H       -0.79354723      -0.87030468       0.02214302       0.00487453      -0.00805288      -0.02281378
H        0.53602453      -1.45108445      -0.48615110      -0.02073902       0.00320028      -0.01296687
O        2.10007166       2.63670274       1.27166487      -0.03391346      -0.04126149      -0.04196622
H        2.39948986       2.52325842       2.18962430       0.00876551      -0.00868389       0.03303281
H        1.65430009       1.79634196       1.06196576      -0.01589361      -0.02222709      -0.01622270
