6
Properties=species:S:1:pos:R:3:forces:R:3 #=T CELL(abcABC):=T 200.00000=T 90.00000=T Step:=T 67=T Bead:=T 0=T positionsangstrom=T cellatomic_unit=T energy=-28.448595071252466 pbc="F F F"
O        0.14495413      -0.96594117       0.26144954       0.07853613       0.11770637       0.07124668
H       -0.79360612      -0.87056333       0.02222939       0.00138348      -0.01136457      -0.02299550
H        0.53593678      -1.45132519      -0.48605083      -0.02123122      -0.00135993      -0.01427296
O        1.93513459       2.33483024       1.18409420      -0.05242142      -0.07777268      -0.04882285
H        2.23440054       2.22121836       2.10184801       0.00917192      -0.00761560       0.03286723
H        1.48847220       1.49328576       0.97341344      -0.01543889      -0.01959358      -0.01802260
