6
Properties=species:S:1:pos:R:3:forces:R:3 #=T CELL(abcABC):=T 200.00000=T 90.00000=T Step:=T 67=T Bead:=T 0=T positionsangstrom=T cellatomic_unit=T energy=-28.1334533099229 pbc="F F F"
O        0.05338784      -0.84428596      -0.14836940      -1.01404093      -1.51405381      -1.02797302
H       -0.90817389      -0.99773371      -0.17914364      -0.01226353       0.02339814       0.01886760
H        0.37532651      -1.58886714      -0.68751137       0.00895230      -0.03153463      -0.01599814
O        1.13076597       0.74620573       0.92382114       0.99406136       1.49006804       1.00059932
H        1.61996587       1.29808517       1.55854127       0.00628381       0.00122376       0.03123619
H        0.95001805      -0.10266653       1.35271617       0.01700701       0.03089850      -0.00673196
