3
Properties=species:S:1:pos:R:3:forces:R:3 energy=-14.169202956282602 pbc="F F F"
H       -0.00000000      -0.05347523      -0.36037125       0.00000000      -0.00000000       0.00000000
O       -0.00000000       0.71740763       0.23278391      -0.00000000       0.00000001      -0.00000001
H       -0.00000000       0.33606759       1.12758735       0.00000000      -0.00000000       0.00000000
