192
Lattice="8.658094745578074 -2.2562577097764058e-10 -1.1650202439366636e-08 -3.8523282510895245e-10 15.04334337005601 2.6542734719457777e-05 -1.9315424742338587e-08 2.5995856716306035e-05 14.11960649061818" Properties=species:S:1:pos:R:3:forces:R:3 energy=-958.667502388655 stress="7.283826957287659e-06 -9.116781885523836e-09 -1.922298053779321e-07 -9.116781885523836e-09 -6.123984236065718e-06 3.333983978963615e-07 -1.922298053779321e-07 3.333983978963615e-07 -1.3003297377736298e-06" pbc="T T T"
H       -0.00000475       4.01744454       0.12635161      -0.00001902       0.00006286       0.00000680
H       -0.00000739       4.98533388       1.43019439      -0.00000614      -0.00004966       0.00006724
H       -0.00000453       3.50419061       3.65630938      -0.00002115       0.00004786      -0.00003678
H       -0.00000663       2.53633250       4.96017712      -0.00001136      -0.00001194      -0.00007294
H        2.16452801       1.22450679       1.43022891      -0.00002028       0.00001327      -0.00002958
H        2.16452878       0.25665107       0.12635461      -0.00002676      -0.00004233       0.00006315
H        2.16452727       6.29720032       4.96013811      -0.00001635      -0.00001518       0.00003131
H        2.16452938       7.26506041       3.65628089      -0.00002775      -0.00002488      -0.00002161
H        1.35408966       5.74534512       6.94650372       0.00002522      -0.00001895      -0.00004760
H        2.97495492       5.74534294       6.94650752      -0.00004658      -0.00002738      -0.00005415
H        1.35409541       1.77636811       3.41656519      -0.00005802      -0.00000031       0.00002996
H        2.97494982       1.77637025       3.41656860       0.00003392       0.00000919       0.00002649
H        0.81043343       1.98447776       6.94648956      -0.00001316       0.00000528       0.00001524
H        3.51860964       1.98446893       6.94649338       0.00001532       0.00003933       0.00000261
H        0.81042325       5.53720011       3.41655770       0.00001234       0.00000172       0.00001942
H        3.51862006       5.53720875       3.41656104      -0.00000948      -0.00003222       0.00001078
O       -0.00001243       4.98325098       0.42166985       0.00005589       0.00003564       0.00006135
O       -0.00001335       2.53839722       3.95164543       0.00006490       0.00003077      -0.00006461
O        2.16452182       1.22244775       0.42169967       0.00002735      -0.00002448      -0.00001716
O        2.16452231       6.29926242       3.95161347       0.00002410      -0.00001595       0.00001789
O        2.16452258       6.24432529       6.61034824      -0.00000405      -0.00001513      -0.00009622
O        2.16452272       1.27740471       3.08037734      -0.00000365       0.00002128       0.00007925
O        4.32904245       2.48344366       6.61032185       0.00001268       0.00002137      -0.00001336
O        4.32904273       5.03822724       3.08038597       0.00001202      -0.00001017       0.00002252
H       -0.00000476       4.01745754       7.18615485      -0.00001902       0.00006286       0.00000680
H       -0.00000740       4.98534688       8.48999764      -0.00000614      -0.00004966       0.00006724
H       -0.00000454       3.50420361      10.71611263      -0.00002115       0.00004786      -0.00003678
H       -0.00000664       2.53634550      12.01998036      -0.00001136      -0.00001194      -0.00007294
H        2.16452800       1.22451979       8.49003216      -0.00002028       0.00001327      -0.00002958
H        2.16452877       0.25666406       7.18615786      -0.00002676      -0.00004233       0.00006315
H        2.16452726       6.29721332      12.01994135      -0.00001635      -0.00001518       0.00003131
H        2.16452937       7.26507341      10.71608414      -0.00002775      -0.00002488      -0.00002161
H        1.35408965       5.74535812      14.00630696       0.00002522      -0.00001895      -0.00004760
H        2.97495491       5.74535594      14.00631077      -0.00004658      -0.00002738      -0.00005415
H        1.35409540       1.77638111      10.47636844      -0.00005802      -0.00000031       0.00002996
H        2.97494981       1.77638325      10.47637185       0.00003392       0.00000919       0.00002649
H        0.81043343       1.98449075      14.00629281      -0.00001316       0.00000528       0.00001524
H        3.51860963       1.98448192      14.00629663       0.00001532       0.00003933       0.00000261
H        0.81042324       5.53721311      10.47636094       0.00001234       0.00000172       0.00001942
H        3.51862005       5.53722174      10.47636429      -0.00000948      -0.00003222       0.00001078
O       -0.00001244       4.98326398       7.48147309       0.00005589       0.00003564       0.00006135
O       -0.00001336       2.53841022      11.01144867       0.00006490       0.00003077      -0.00006461
O        2.16452181       1.22246074       7.48150292       0.00002735      -0.00002448      -0.00001716
O        2.16452230       6.29927542      11.01141672       0.00002410      -0.00001595       0.00001789
O        2.16452257       6.24433828      13.67015148      -0.00000405      -0.00001513      -0.00009622
O        2.16452272       1.27741771      10.14018058      -0.00000365       0.00002128       0.00007925
O        4.32904244       2.48345666      13.67012510       0.00001268       0.00002137      -0.00001336
O        4.32904272       5.03824024      10.14018921       0.00001202      -0.00001017       0.00002252
H       -0.00000475      11.53911623       0.12636488      -0.00001902       0.00006286       0.00000680
H       -0.00000739      12.50700557       1.43020767      -0.00000614      -0.00004966       0.00006724
H       -0.00000453      11.02586229       3.65632266      -0.00002115       0.00004786      -0.00003678
H       -0.00000663      10.05800418       4.96019039      -0.00001136      -0.00001194      -0.00007294
H        2.16452801       8.74617848       1.43024218      -0.00002028       0.00001327      -0.00002958
H        2.16452878       7.77832275       0.12636788      -0.00002676      -0.00004233       0.00006315
H        2.16452727      13.81887201       4.96015138      -0.00001635      -0.00001518       0.00003131
H        2.16452938      14.78673210       3.65629416      -0.00002775      -0.00002488      -0.00002161
H        1.35408966      13.26701681       6.94651699       0.00002522      -0.00001895      -0.00004760
H        2.97495492      13.26701463       6.94652079      -0.00004658      -0.00002738      -0.00005415
H        1.35409541       9.29803979       3.41657847      -0.00005802      -0.00000031       0.00002996
H        2.97494982       9.29804194       3.41658187       0.00003392       0.00000919       0.00002649
H        0.81043343       9.50614944       6.94650284      -0.00001316       0.00000528       0.00001524
H        3.51860964       9.50614061       6.94650665       0.00001532       0.00003933       0.00000261
H        0.81042325      13.05887179       3.41657097       0.00001234       0.00000172       0.00001942
H        3.51862006      13.05888043       3.41657431      -0.00000948      -0.00003222       0.00001078
O       -0.00001243      12.50492267       0.42168312       0.00005589       0.00003564       0.00006135
O       -0.00001335      10.06006890       3.95165870       0.00006490       0.00003077      -0.00006461
O        2.16452182       8.74411943       0.42171294       0.00002735      -0.00002448      -0.00001716
O        2.16452231      13.82093410       3.95162674       0.00002410      -0.00001595       0.00001789
O        2.16452258      13.76599697       6.61036151      -0.00000405      -0.00001513      -0.00009622
O        2.16452272       8.79907639       3.08039061      -0.00000365       0.00002128       0.00007925
O        4.32904245      10.00511535       6.61033512       0.00001268       0.00002137      -0.00001336
O        4.32904273      12.55989892       3.08039924       0.00001202      -0.00001017       0.00002252
H       -0.00000476      11.53912923       7.18616812      -0.00001902       0.00006286       0.00000680
H       -0.00000740      12.50701856       8.49001091      -0.00000614      -0.00004966       0.00006724
H       -0.00000454      11.02587529      10.71612590      -0.00002115       0.00004786      -0.00003678
H       -0.00000664      10.05801718      12.01999363      -0.00001136      -0.00001194      -0.00007294
H        2.16452800       8.74619148       8.49004543      -0.00002028       0.00001327      -0.00002958
H        2.16452877       7.77833575       7.18617113      -0.00002676      -0.00004233       0.00006315
H        2.16452726      13.81888501      12.01995462      -0.00001635      -0.00001518       0.00003131
H        2.16452937      14.78674510      10.71609741      -0.00002775      -0.00002488      -0.00002161
H        1.35408965      13.26702980      14.00632023       0.00002522      -0.00001895      -0.00004760
H        2.97495491      13.26702763      14.00632404      -0.00004658      -0.00002738      -0.00005415
H        1.35409540       9.29805279      10.47638171      -0.00005802      -0.00000031       0.00002996
H        2.97494981       9.29805494      10.47638512       0.00003392       0.00000919       0.00002649
H        0.81043342       9.50616244      14.00630608      -0.00001316       0.00000528       0.00001524
H        3.51860963       9.50615361      14.00630990       0.00001532       0.00003933       0.00000261
H        0.81042324      13.05888479      10.47637421       0.00001234       0.00000172       0.00001942
H        3.51862005      13.05889343      10.47637756      -0.00000948      -0.00003222       0.00001078
O       -0.00001244      12.50493567       7.48148636       0.00005589       0.00003564       0.00006135
O       -0.00001336      10.06008190      11.01146194       0.00006490       0.00003077      -0.00006461
O        2.16452181       8.74413243       7.48151619       0.00002735      -0.00002448      -0.00001716
O        2.16452230      13.82094710      11.01142999       0.00002410      -0.00001595       0.00001789
O        2.16452257      13.76600997      13.67016476      -0.00000405      -0.00001513      -0.00009622
O        2.16452272       8.79908939      10.14019385      -0.00000365       0.00002128       0.00007925
O        4.32904244      10.00512834      13.67013837       0.00001268       0.00002137      -0.00001336
O        4.32904272      12.55991192      10.14020249       0.00001202      -0.00001017       0.00002252
H        4.32904262       4.01744454       0.12635160      -0.00001902       0.00006286       0.00000680
H        4.32903998       4.98533388       1.43019439      -0.00000614      -0.00004966       0.00006724
H        4.32904284       3.50419061       3.65630938      -0.00002115       0.00004786      -0.00003678
H        4.32904074       2.53633250       4.96017711      -0.00001136      -0.00001194      -0.00007294
H        6.49357538       1.22450679       1.43022890      -0.00002028       0.00001327      -0.00002958
H        6.49357615       0.25665107       0.12635461      -0.00002676      -0.00004233       0.00006315
H        6.49357465       6.29720032       4.96013810      -0.00001635      -0.00001518       0.00003131
H        6.49357675       7.26506041       3.65628088      -0.00002775      -0.00002488      -0.00002161
H        5.68313703       5.74534512       6.94650371       0.00002522      -0.00001895      -0.00004760
H        7.30400229       5.74534294       6.94650752      -0.00004658      -0.00002738      -0.00005415
H        5.68314279       1.77636811       3.41656519      -0.00005802      -0.00000031       0.00002996
H        7.30399719       1.77637025       3.41656860       0.00003392       0.00000919       0.00002649
H        5.13948081       1.98447776       6.94648956      -0.00001316       0.00000528       0.00001524
H        7.84765701       1.98446893       6.94649338       0.00001532       0.00003933       0.00000261
H        5.13947062       5.53720011       3.41655769       0.00001234       0.00000172       0.00001942
H        7.84766744       5.53720875       3.41656104      -0.00000948      -0.00003222       0.00001078
O        4.32903494       4.98325098       0.42166984       0.00005589       0.00003564       0.00006135
O        4.32903402       2.53839722       3.95164542       0.00006490       0.00003077      -0.00006461
O        6.49356919       1.22244775       0.42169967       0.00002735      -0.00002448      -0.00001716
O        6.49356968       6.29926242       3.95161346       0.00002410      -0.00001595       0.00001789
O        6.49356995       6.24432529       6.61034823      -0.00000405      -0.00001513      -0.00009622
O        6.49357010       1.27740471       3.08037733      -0.00000365       0.00002128       0.00007925
O        8.65808983       2.48344366       6.61032185       0.00001268       0.00002137      -0.00001336
O        8.65809010       5.03822724       3.08038596       0.00001202      -0.00001017       0.00002252
H        4.32904261       4.01745754       7.18615485      -0.00001902       0.00006286       0.00000680
H        4.32903997       4.98534688       8.48999763      -0.00000614      -0.00004966       0.00006724
H        4.32904283       3.50420361      10.71611262      -0.00002115       0.00004786      -0.00003678
H        4.32904073       2.53634550      12.01998036      -0.00001136      -0.00001194      -0.00007294
H        6.49357537       1.22451979       8.49003215      -0.00002028       0.00001327      -0.00002958
H        6.49357615       0.25666406       7.18615785      -0.00002676      -0.00004233       0.00006315
H        6.49357464       6.29721332      12.01994135      -0.00001635      -0.00001518       0.00003131
H        6.49357674       7.26507341      10.71608413      -0.00002775      -0.00002488      -0.00002161
H        5.68313702       5.74535812      14.00630696       0.00002522      -0.00001895      -0.00004760
H        7.30400228       5.74535594      14.00631076      -0.00004658      -0.00002738      -0.00005415
H        5.68314278       1.77638111      10.47636843      -0.00005802      -0.00000031       0.00002996
H        7.30399719       1.77638325      10.47637184       0.00003392       0.00000919       0.00002649
H        5.13948080       1.98449075      14.00629280      -0.00001316       0.00000528       0.00001524
H        7.84765700       1.98448192      14.00629662       0.00001532       0.00003933       0.00000261
H        5.13947061       5.53721311      10.47636094       0.00001234       0.00000172       0.00001942
H        7.84766743       5.53722174      10.47636428      -0.00000948      -0.00003222       0.00001078
O        4.32903493       4.98326398       7.48147308       0.00005589       0.00003564       0.00006135
O        4.32903401       2.53841022      11.01144866       0.00006490       0.00003077      -0.00006461
O        6.49356918       1.22246074       7.48150291       0.00002735      -0.00002448      -0.00001716
O        6.49356967       6.29927542      11.01141671       0.00002410      -0.00001595       0.00001789
O        6.49356994       6.24433828      13.67015148      -0.00000405      -0.00001513      -0.00009622
O        6.49357009       1.27741771      10.14018057      -0.00000365       0.00002128       0.00007925
O        8.65808982       2.48345666      13.67012509       0.00001268       0.00002137      -0.00001336
O        8.65809009       5.03824024      10.14018921       0.00001202      -0.00001017       0.00002252
H        4.32904262      11.53911623       0.12636487      -0.00001902       0.00006286       0.00000680
H        4.32903998      12.50700557       1.43020766      -0.00000614      -0.00004966       0.00006724
H        4.32904284      11.02586229       3.65632265      -0.00002115       0.00004786      -0.00003678
H        4.32904074      10.05800418       4.96019038      -0.00001136      -0.00001194      -0.00007294
H        6.49357538       8.74617848       1.43024218      -0.00002028       0.00001327      -0.00002958
H        6.49357615       7.77832275       0.12636788      -0.00002676      -0.00004233       0.00006315
H        6.49357465      13.81887201       4.96015137      -0.00001635      -0.00001518       0.00003131
H        6.49357675      14.78673210       3.65629416      -0.00002775      -0.00002488      -0.00002161
H        5.68313703      13.26701681       6.94651698       0.00002522      -0.00001895      -0.00004760
H        7.30400229      13.26701463       6.94652079      -0.00004658      -0.00002738      -0.00005415
H        5.68314279       9.29803979       3.41657846      -0.00005802      -0.00000031       0.00002996
H        7.30399719       9.29804194       3.41658187       0.00003392       0.00000919       0.00002649
H        5.13948081       9.50614944       6.94650283      -0.00001316       0.00000528       0.00001524
H        7.84765701       9.50614061       6.94650665       0.00001532       0.00003933       0.00000261
H        5.13947062      13.05887179       3.41657096       0.00001234       0.00000172       0.00001942
H        7.84766743      13.05888043       3.41657431      -0.00000948      -0.00003222       0.00001078
O        4.32903494      12.50492267       0.42168311       0.00005589       0.00003564       0.00006135
O        4.32903402      10.06006890       3.95165869       0.00006490       0.00003077      -0.00006461
O        6.49356919       8.74411943       0.42171294       0.00002735      -0.00002448      -0.00001716
O        6.49356968      13.82093410       3.95162674       0.00002410      -0.00001595       0.00001789
O        6.49356995      13.76599697       6.61036150      -0.00000405      -0.00001513      -0.00009622
O        6.49357010       8.79907639       3.08039060      -0.00000365       0.00002128       0.00007925
O        8.65808983      10.00511535       6.61033512       0.00001268       0.00002137      -0.00001336
O        8.65809010      12.55989892       3.08039924       0.00001202      -0.00001017       0.00002252
H        4.32904261      11.53912923       7.18616812      -0.00001902       0.00006286       0.00000680
H        4.32903997      12.50701856       8.49001090      -0.00000614      -0.00004966       0.00006724
H        4.32904283      11.02587529      10.71612590      -0.00002115       0.00004786      -0.00003678
H        4.32904073      10.05801718      12.01999363      -0.00001136      -0.00001194      -0.00007294
H        6.49357537       8.74619148       8.49004542      -0.00002028       0.00001327      -0.00002958
H        6.49357615       7.77833575       7.18617112      -0.00002676      -0.00004233       0.00006315
H        6.49357464      13.81888501      12.01995462      -0.00001635      -0.00001518       0.00003131
H        6.49357674      14.78674510      10.71609740      -0.00002775      -0.00002488      -0.00002161
H        5.68313702      13.26702980      14.00632023       0.00002522      -0.00001895      -0.00004760
H        7.30400228      13.26702763      14.00632403      -0.00004658      -0.00002738      -0.00005415
H        5.68314278       9.29805279      10.47638170      -0.00005802      -0.00000031       0.00002996
H        7.30399718       9.29805494      10.47638511       0.00003392       0.00000919       0.00002649
H        5.13948080       9.50616244      14.00630608      -0.00001316       0.00000528       0.00001524
H        7.84765700       9.50615361      14.00630989       0.00001532       0.00003933       0.00000261
H        5.13947061      13.05888479      10.47637421       0.00001234       0.00000172       0.00001942
H        7.84766743      13.05889343      10.47637755      -0.00000948      -0.00003222       0.00001078
O        4.32903493      12.50493567       7.48148636       0.00005589       0.00003564       0.00006135
O        4.32903401      10.06008190      11.01146194       0.00006490       0.00003077      -0.00006461
O        6.49356918       8.74413243       7.48151618       0.00002735      -0.00002448      -0.00001716
O        6.49356967      13.82094710      11.01142998       0.00002410      -0.00001595       0.00001789
O        6.49356994      13.76600997      13.67016475      -0.00000405      -0.00001513      -0.00009622
O        6.49357009       8.79908939      10.14019385      -0.00000365       0.00002128       0.00007925
O        8.65808982      10.00512834      13.67013836       0.00001268       0.00002137      -0.00001336
O        8.65809009      12.55991192      10.14020248       0.00001202      -0.00001017       0.00002252
