phonopy:
  version: "2.21.2"
  frequency_unit_conversion_factor: 15.633302
  symmetry_tolerance: 1.00000e-05
  configuration:

physical_unit:
  atomic_mass: "AMU"
  length: "angstrom"
  force_constants: "eV/angstrom^2"

space_group:
  type: "Cm"
  number: 8
  Hall_symbol: "C -2y"

supercell_matrix:
- [   1,   0,   0 ]
- [   0,   1,   0 ]
- [   0,   0,   1 ]

primitive_cell:
  lattice:
  - [     7.505779278991579,     0.000000000000000,     0.000000000000000 ] # a
  - [     3.752889150716872,     6.500194953440680,     0.000000000000000 ] # b
  - [     0.000000000000000,     0.000000000000000,     7.072207002581937 ] # c
  points:
  - symbol: H  # 1
    coordinates: [  0.999992793251763,  0.335594044057736,  0.203212290104661 ]
    mass: 1.008000
  - symbol: H  # 2
    coordinates: [  0.664391659502863,  0.999992820959439,  0.203212288395529 ]
    mass: 1.008000
  - symbol: H  # 3
    coordinates: [  0.335593840566579,  0.664391773624652,  0.203212276615472 ]
    mass: 1.008000
  - symbol: H  # 4
    coordinates: [  0.335594118213596,  0.999992455888743,  0.703212706849190 ]
    mass: 1.008000
  - symbol: H  # 5
    coordinates: [  0.999992984535386,  0.664391233825082,  0.703212707537311 ]
    mass: 1.008000
  - symbol: H  # 6
    coordinates: [  0.664391937267283,  0.335593503169850,  0.703212695028141 ]
    mass: 1.008000
  - symbol: H  # 7
    coordinates: [  0.538273498941650,  0.999993343731299,  0.016881432432766 ]
    mass: 1.008000
  - symbol: H  # 8
    coordinates: [  0.999992538759856,  0.461712407893314,  0.016881601388611 ]
    mass: 1.008000
  - symbol: H  # 9
    coordinates: [  0.461711570047330,  0.538274312455310,  0.016881263142584 ]
    mass: 1.008000
  - symbol: H  # 10
    coordinates: [  0.461711949621986,  0.999991933524913,  0.516881568422859 ]
    mass: 1.008000
  - symbol: H  # 11
    coordinates: [  0.999993239028944,  0.538273199101366,  0.516881736438982 ]
    mass: 1.008000
  - symbol: H  # 12
    coordinates: [  0.538274536893097,  0.461710635640632,  0.516881399114561 ]
    mass: 1.008000
  - symbol: H  # 13
    coordinates: [  0.331268149484875,  0.874896960715994,  0.985287566067842 ]
    mass: 1.008000
  - symbol: H  # 14
    coordinates: [  0.206171758643030,  0.125089774919305,  0.985287302053346 ]
    mass: 1.008000
  - symbol: H  # 15
    coordinates: [  0.874896131516856,  0.793814137455647,  0.985287298464902 ]
    mass: 1.008000
  - symbol: H  # 16
    coordinates: [  0.793813324315080,  0.331268978703266,  0.985287436839522 ]
    mass: 1.008000
  - symbol: H  # 17
    coordinates: [  0.668716935719768,  0.206172564258959,  0.985287573234079 ]
    mass: 1.008000
  - symbol: H  # 18
    coordinates: [  0.125089727014618,  0.206171040322664,  0.485287346538358 ]
    mass: 1.008000
  - symbol: H  # 19
    coordinates: [  0.668717644420148,  0.125088400152427,  0.485287614761425 ]
    mass: 1.008000
  - symbol: H  # 20
    coordinates: [  0.793814117701200,  0.874895423543812,  0.485287351747585 ]
    mass: 1.008000
  - symbol: H  # 21
    coordinates: [  0.206172354926792,  0.668716318284668,  0.485287486543348 ]
    mass: 1.008000
  - symbol: H  # 22
    coordinates: [  0.331268825935831,  0.793812812708419,  0.485287621946350 ]
    mass: 1.008000
  - symbol: H  # 23
    coordinates: [  0.874896761125867,  0.331267519989902,  0.485287474122632 ]
    mass: 1.008000
  - symbol: H  # 24
    coordinates: [  0.125088935881212,  0.668717738581984,  0.985287426065179 ]
    mass: 1.008000
  - symbol: O  # 25
    coordinates: [  0.999992557319894,  0.333553000286903,  0.060622209734352 ]
    mass: 15.999000
  - symbol: O  # 26
    coordinates: [  0.666432857893167,  0.999993299322131,  0.060622212983646 ]
    mass: 15.999000
  - symbol: O  # 27
    coordinates: [  0.333552264435937,  0.666433592201329,  0.060622202907499 ]
    mass: 15.999000
  - symbol: O  # 28
    coordinates: [  0.333553286850377,  0.999991977381467,  0.560621618425291 ]
    mass: 15.999000
  - symbol: O  # 29
    coordinates: [  0.666433146416363,  0.333552051441267,  0.560621608396492 ]
    mass: 15.999000
  - symbol: O  # 30
    coordinates: [  0.333675986220900,  0.999993304912650,  0.936363743523087 ]
    mass: 15.999000
  - symbol: O  # 31
    coordinates: [  0.666309167228439,  0.333676705458066,  0.936363730197375 ]
    mass: 15.999000
  - symbol: O  # 32
    coordinates: [  0.999993209969162,  0.333675540003433,  0.436363625679690 ]
    mass: 15.999000
  - symbol: O  # 33
    coordinates: [  0.666309654509573,  0.999991973079829,  0.436363620290327 ]
    mass: 15.999000
  - symbol: O  # 34
    coordinates: [  0.333676747591410,  0.666308435472005,  0.436363606978226 ]
    mass: 15.999000
  - symbol: O  # 35
    coordinates: [  0.999993220472453,  0.666431913715539,  0.560621618018370 ]
    mass: 15.999000
  - symbol: O  # 36
    coordinates: [  0.999992567776480,  0.666309873215555,  0.936363749009972 ]
    mass: 15.999000
  reciprocal_lattice: # without 2pi
  - [     0.133230669705272,    -0.076920759832749,     0.000000000000000 ] # a*
  - [     0.000000000000000,     0.153841539701925,     0.000000000000000 ] # b*
  - [     0.000000000000000,     0.000000000000000,     0.141398576092996 ] # c*

unit_cell:
  lattice:
  - [     7.505779278991579,    -0.000000000000000,     0.000000000000000 ] # a
  - [     3.752889150716872,     6.500194953440680,     0.000000000000000 ] # b
  - [     0.000000000000000,     0.000000000000000,     7.072207002581937 ] # c
  points:
  - symbol: H  # 1
    coordinates: [  0.999992793251763,  0.335594044057736,  0.203212290104661 ]
    mass: 1.008000
    reduced_to: 1
  - symbol: H  # 2
    coordinates: [  0.664391659502863,  0.999992820959439,  0.203212288395529 ]
    mass: 1.008000
    reduced_to: 2
  - symbol: H  # 3
    coordinates: [  0.335593840566579,  0.664391773624652,  0.203212276615472 ]
    mass: 1.008000
    reduced_to: 3
  - symbol: H  # 4
    coordinates: [  0.335594118213596,  0.999992455888743,  0.703212706849190 ]
    mass: 1.008000
    reduced_to: 4
  - symbol: H  # 5
    coordinates: [  0.999992984535386,  0.664391233825082,  0.703212707537311 ]
    mass: 1.008000
    reduced_to: 5
  - symbol: H  # 6
    coordinates: [  0.664391937267283,  0.335593503169850,  0.703212695028141 ]
    mass: 1.008000
    reduced_to: 6
  - symbol: H  # 7
    coordinates: [  0.538273498941650,  0.999993343731299,  0.016881432432766 ]
    mass: 1.008000
    reduced_to: 7
  - symbol: H  # 8
    coordinates: [  0.999992538759856,  0.461712407893314,  0.016881601388611 ]
    mass: 1.008000
    reduced_to: 8
  - symbol: H  # 9
    coordinates: [  0.461711570047330,  0.538274312455310,  0.016881263142584 ]
    mass: 1.008000
    reduced_to: 9
  - symbol: H  # 10
    coordinates: [  0.461711949621986,  0.999991933524913,  0.516881568422859 ]
    mass: 1.008000
    reduced_to: 10
  - symbol: H  # 11
    coordinates: [  0.999993239028944,  0.538273199101366,  0.516881736438982 ]
    mass: 1.008000
    reduced_to: 11
  - symbol: H  # 12
    coordinates: [  0.538274536893097,  0.461710635640632,  0.516881399114561 ]
    mass: 1.008000
    reduced_to: 12
  - symbol: H  # 13
    coordinates: [  0.331268149484875,  0.874896960715994,  0.985287566067842 ]
    mass: 1.008000
    reduced_to: 13
  - symbol: H  # 14
    coordinates: [  0.206171758643030,  0.125089774919305,  0.985287302053346 ]
    mass: 1.008000
    reduced_to: 14
  - symbol: H  # 15
    coordinates: [  0.874896131516856,  0.793814137455647,  0.985287298464902 ]
    mass: 1.008000
    reduced_to: 15
  - symbol: H  # 16
    coordinates: [  0.793813324315080,  0.331268978703266,  0.985287436839522 ]
    mass: 1.008000
    reduced_to: 16
  - symbol: H  # 17
    coordinates: [  0.668716935719768,  0.206172564258959,  0.985287573234079 ]
    mass: 1.008000
    reduced_to: 17
  - symbol: H  # 18
    coordinates: [  0.125089727014618,  0.206171040322664,  0.485287346538358 ]
    mass: 1.008000
    reduced_to: 18
  - symbol: H  # 19
    coordinates: [  0.668717644420148,  0.125088400152427,  0.485287614761425 ]
    mass: 1.008000
    reduced_to: 19
  - symbol: H  # 20
    coordinates: [  0.793814117701200,  0.874895423543812,  0.485287351747585 ]
    mass: 1.008000
    reduced_to: 20
  - symbol: H  # 21
    coordinates: [  0.206172354926792,  0.668716318284668,  0.485287486543348 ]
    mass: 1.008000
    reduced_to: 21
  - symbol: H  # 22
    coordinates: [  0.331268825935831,  0.793812812708419,  0.485287621946350 ]
    mass: 1.008000
    reduced_to: 22
  - symbol: H  # 23
    coordinates: [  0.874896761125867,  0.331267519989902,  0.485287474122632 ]
    mass: 1.008000
    reduced_to: 23
  - symbol: H  # 24
    coordinates: [  0.125088935881212,  0.668717738581984,  0.985287426065179 ]
    mass: 1.008000
    reduced_to: 24
  - symbol: O  # 25
    coordinates: [  0.999992557319894,  0.333553000286903,  0.060622209734352 ]
    mass: 15.999000
    reduced_to: 25
  - symbol: O  # 26
    coordinates: [  0.666432857893167,  0.999993299322131,  0.060622212983646 ]
    mass: 15.999000
    reduced_to: 26
  - symbol: O  # 27
    coordinates: [  0.333552264435937,  0.666433592201329,  0.060622202907499 ]
    mass: 15.999000
    reduced_to: 27
  - symbol: O  # 28
    coordinates: [  0.333553286850377,  0.999991977381467,  0.560621618425291 ]
    mass: 15.999000
    reduced_to: 28
  - symbol: O  # 29
    coordinates: [  0.666433146416363,  0.333552051441267,  0.560621608396492 ]
    mass: 15.999000
    reduced_to: 29
  - symbol: O  # 30
    coordinates: [  0.333675986220900,  0.999993304912650,  0.936363743523087 ]
    mass: 15.999000
    reduced_to: 30
  - symbol: O  # 31
    coordinates: [  0.666309167228439,  0.333676705458066,  0.936363730197375 ]
    mass: 15.999000
    reduced_to: 31
  - symbol: O  # 32
    coordinates: [  0.999993209969162,  0.333675540003433,  0.436363625679690 ]
    mass: 15.999000
    reduced_to: 32
  - symbol: O  # 33
    coordinates: [  0.666309654509573,  0.999991973079829,  0.436363620290327 ]
    mass: 15.999000
    reduced_to: 33
  - symbol: O  # 34
    coordinates: [  0.333676747591410,  0.666308435472005,  0.436363606978226 ]
    mass: 15.999000
    reduced_to: 34
  - symbol: O  # 35
    coordinates: [  0.999993220472453,  0.666431913715539,  0.560621618018370 ]
    mass: 15.999000
    reduced_to: 35
  - symbol: O  # 36
    coordinates: [  0.999992567776480,  0.666309873215555,  0.936363749009972 ]
    mass: 15.999000
    reduced_to: 36

supercell:
  lattice:
  - [     7.505779278991579,     0.000000000000000,     0.000000000000000 ] # a
  - [     3.752889150716872,     6.500194953440680,     0.000000000000000 ] # b
  - [     0.000000000000000,     0.000000000000000,     7.072207002581937 ] # c
  points:
  - symbol: H  # 1
    coordinates: [  0.999992793251763,  0.335594044057736,  0.203212290104661 ]
    mass: 1.008000
    reduced_to: 1
  - symbol: H  # 2
    coordinates: [  0.664391659502863,  0.999992820959439,  0.203212288395529 ]
    mass: 1.008000
    reduced_to: 2
  - symbol: H  # 3
    coordinates: [  0.335593840566579,  0.664391773624652,  0.203212276615472 ]
    mass: 1.008000
    reduced_to: 3
  - symbol: H  # 4
    coordinates: [  0.335594118213596,  0.999992455888743,  0.703212706849190 ]
    mass: 1.008000
    reduced_to: 4
  - symbol: H  # 5
    coordinates: [  0.999992984535386,  0.664391233825082,  0.703212707537311 ]
    mass: 1.008000
    reduced_to: 5
  - symbol: H  # 6
    coordinates: [  0.664391937267283,  0.335593503169850,  0.703212695028141 ]
    mass: 1.008000
    reduced_to: 6
  - symbol: H  # 7
    coordinates: [  0.538273498941650,  0.999993343731299,  0.016881432432766 ]
    mass: 1.008000
    reduced_to: 7
  - symbol: H  # 8
    coordinates: [  0.999992538759856,  0.461712407893314,  0.016881601388611 ]
    mass: 1.008000
    reduced_to: 8
  - symbol: H  # 9
    coordinates: [  0.461711570047330,  0.538274312455310,  0.016881263142584 ]
    mass: 1.008000
    reduced_to: 9
  - symbol: H  # 10
    coordinates: [  0.461711949621986,  0.999991933524913,  0.516881568422859 ]
    mass: 1.008000
    reduced_to: 10
  - symbol: H  # 11
    coordinates: [  0.999993239028944,  0.538273199101366,  0.516881736438982 ]
    mass: 1.008000
    reduced_to: 11
  - symbol: H  # 12
    coordinates: [  0.538274536893097,  0.461710635640632,  0.516881399114561 ]
    mass: 1.008000
    reduced_to: 12
  - symbol: H  # 13
    coordinates: [  0.331268149484875,  0.874896960715994,  0.985287566067842 ]
    mass: 1.008000
    reduced_to: 13
  - symbol: H  # 14
    coordinates: [  0.206171758643030,  0.125089774919305,  0.985287302053346 ]
    mass: 1.008000
    reduced_to: 14
  - symbol: H  # 15
    coordinates: [  0.874896131516856,  0.793814137455647,  0.985287298464902 ]
    mass: 1.008000
    reduced_to: 15
  - symbol: H  # 16
    coordinates: [  0.793813324315080,  0.331268978703266,  0.985287436839522 ]
    mass: 1.008000
    reduced_to: 16
  - symbol: H  # 17
    coordinates: [  0.668716935719768,  0.206172564258959,  0.985287573234079 ]
    mass: 1.008000
    reduced_to: 17
  - symbol: H  # 18
    coordinates: [  0.125089727014618,  0.206171040322664,  0.485287346538358 ]
    mass: 1.008000
    reduced_to: 18
  - symbol: H  # 19
    coordinates: [  0.668717644420148,  0.125088400152427,  0.485287614761425 ]
    mass: 1.008000
    reduced_to: 19
  - symbol: H  # 20
    coordinates: [  0.793814117701200,  0.874895423543812,  0.485287351747585 ]
    mass: 1.008000
    reduced_to: 20
  - symbol: H  # 21
    coordinates: [  0.206172354926792,  0.668716318284668,  0.485287486543348 ]
    mass: 1.008000
    reduced_to: 21
  - symbol: H  # 22
    coordinates: [  0.331268825935831,  0.793812812708419,  0.485287621946350 ]
    mass: 1.008000
    reduced_to: 22
  - symbol: H  # 23
    coordinates: [  0.874896761125867,  0.331267519989902,  0.485287474122632 ]
    mass: 1.008000
    reduced_to: 23
  - symbol: H  # 24
    coordinates: [  0.125088935881212,  0.668717738581984,  0.985287426065179 ]
    mass: 1.008000
    reduced_to: 24
  - symbol: O  # 25
    coordinates: [  0.999992557319894,  0.333553000286903,  0.060622209734352 ]
    mass: 15.999000
    reduced_to: 25
  - symbol: O  # 26
    coordinates: [  0.666432857893167,  0.999993299322131,  0.060622212983646 ]
    mass: 15.999000
    reduced_to: 26
  - symbol: O  # 27
    coordinates: [  0.333552264435937,  0.666433592201329,  0.060622202907499 ]
    mass: 15.999000
    reduced_to: 27
  - symbol: O  # 28
    coordinates: [  0.333553286850377,  0.999991977381467,  0.560621618425291 ]
    mass: 15.999000
    reduced_to: 28
  - symbol: O  # 29
    coordinates: [  0.666433146416363,  0.333552051441267,  0.560621608396492 ]
    mass: 15.999000
    reduced_to: 29
  - symbol: O  # 30
    coordinates: [  0.333675986220900,  0.999993304912650,  0.936363743523087 ]
    mass: 15.999000
    reduced_to: 30
  - symbol: O  # 31
    coordinates: [  0.666309167228439,  0.333676705458066,  0.936363730197375 ]
    mass: 15.999000
    reduced_to: 31
  - symbol: O  # 32
    coordinates: [  0.999993209969162,  0.333675540003433,  0.436363625679690 ]
    mass: 15.999000
    reduced_to: 32
  - symbol: O  # 33
    coordinates: [  0.666309654509573,  0.999991973079829,  0.436363620290327 ]
    mass: 15.999000
    reduced_to: 33
  - symbol: O  # 34
    coordinates: [  0.333676747591410,  0.666308435472005,  0.436363606978226 ]
    mass: 15.999000
    reduced_to: 34
  - symbol: O  # 35
    coordinates: [  0.999993220472453,  0.666431913715539,  0.560621618018370 ]
    mass: 15.999000
    reduced_to: 35
  - symbol: O  # 36
    coordinates: [  0.999992567776480,  0.666309873215555,  0.936363749009972 ]
    mass: 15.999000
    reduced_to: 36
