288
Lattice="12.92529842077171 6.342875171247418e-07 8.098266263229136e-07 6.342688145828801e-07 12.925295711953419 -5.387163631178492e-07 7.39107509371499e-07 -5.548888942481449e-07 13.74817465163892" Properties=species:S:1:pos:R:3:forces:R:3 energy=-1435.291819703399 stress="7.295612298166207e-07 -2.440960340605824e-07 7.91313996424949e-08 -2.440960340605824e-07 4.160543579890749e-07 -1.7929061088554722e-07 7.91313996424949e-08 -1.7929061088554722e-07 2.468285441896076e-07" pbc="T T T"
H       -0.08823399       2.21137755       1.31392601       0.00004883       0.00000565      -0.00001198
H        0.73570158       1.00234144       1.95420520      -0.00004771      -0.00003918      -0.00001288
H        1.93237768       2.34289061       0.74584373      -0.00003377       0.00006121      -0.00000683
H        1.01997671       3.14311147       3.03242098      -0.00000115       0.00003897       0.00000315
H        2.22905763       3.96703006       3.67266174      -0.00001737       0.00001756       0.00001160
H        0.88841621       5.16367260       2.46439269       0.00001670       0.00005388       0.00000678
H        5.44273394       3.31950596      -0.40461467      -0.00003053       0.00002475      -0.00000173
H        4.23364546       2.49562363       0.23563273       0.00001010      -0.00001649      -0.00002545
H        5.57420567       1.29892810       5.90134845      -0.00002488       0.00000759       0.00001341
H        3.31956541       5.44270289       7.27873676      -0.00002914      -0.00000773       0.00000366
H        2.49565588       4.23363757       6.63847157      -0.00004070       0.00001513       0.00000822
H        1.29894431       5.57425001       0.97270501       0.00003510      -0.00002798      -0.00002547
H        3.14303608       1.01995711       3.84165372       0.00001576       0.00000348      -0.00003722
H        3.96694275       2.22904759       3.20140558       0.00001798      -0.00002149      -0.00002339
H        5.16363081       0.88841108       4.40964686       0.00001366       0.00002786       0.00002572
H        2.34289127       1.93233885      -0.74585874      -0.00000505       0.00005060       0.00001362
H        4.25126966       6.55089082       2.12313332      -0.00002372      -0.00002390       0.00001134
H        5.46036684       5.72697897       1.48291518      -0.00003011      -0.00000016       0.00002696
H        4.11978641       4.53033299       2.69121098      -0.00003098      -0.00005761      -0.00000297
H        6.55091354       4.25127329       4.75094370      -0.00001222      -0.00003068       0.00000952
H        5.72694943       5.46032422       5.39115547       0.00003731      -0.00000928       0.00004404
H        4.53033558       4.11974098       4.18289995      -0.00003133      -0.00002009       0.00001091
H        2.21136829      -0.08824191       5.56021251      -0.00001843       0.00000689      -0.00001363
H        1.00229176       0.73564144       4.91991355       0.00000755       0.00001589       0.00001289
O        0.72454381       2.00231619       1.86686039       0.00001214      -0.00004982      -0.00003208
O        1.22907539       3.95588926       3.58534325      -0.00000142      -0.00003274       0.00004222
O        5.23362564       2.50673852       0.14831096      -0.00001286      -0.00000178      -0.00006899
O        2.50678683       5.23361567       6.72581500       0.00002351      -0.00000862      -0.00002637
O        3.95578065       1.22906321       3.28868908       0.00006505       0.00000893       0.00007220
O        4.46038249       5.73810345       1.57023573      -0.00001136       0.00007221      -0.00006130
O        5.73813749       4.46034082       5.30387596       0.00000958       0.00001222      -0.00000860
O        2.00226748       0.72452093       5.00727083      -0.00001134      -0.00002782      -0.00001499
O        2.56829195       2.56828763      -0.00001993       0.00004376      -0.00004346       0.00004322
O        0.66301286       5.79963095       1.71855901       0.00007407      -0.00000360      -0.00001689
O        5.79957919       0.66300723       5.15548320      -0.00001754       0.00001080       0.00002976
O        3.89438488       3.89438136       3.43705071       0.00000051      -0.00001118       0.00000155
H       -0.08823362       2.21137727       8.18801334       0.00004883       0.00000565      -0.00001198
H        0.73570195       1.00234116       8.82829252      -0.00004771      -0.00003918      -0.00001288
H        1.93237805       2.34289033       7.61993105      -0.00003377       0.00006121      -0.00000683
H        1.01997708       3.14311119       9.90650830      -0.00000115       0.00003897       0.00000315
H        2.22905800       3.96702978      10.54674906      -0.00001737       0.00001756       0.00001160
H        0.88841658       5.16367232       9.33848001       0.00001670       0.00005388       0.00000678
H        5.44273431       3.31950569       6.46947265      -0.00003053       0.00002475      -0.00000173
H        4.23364583       2.49562335       7.10972005       0.00001010      -0.00001649      -0.00002545
H        5.57420604       1.29892782      12.77543577      -0.00002488       0.00000759       0.00001341
H        3.31956578       5.44270261      14.15282409      -0.00002914      -0.00000773       0.00000366
H        2.49565625       4.23363729      13.51255890      -0.00004070       0.00001513       0.00000822
H        1.29894468       5.57424974       7.84679233       0.00003510      -0.00002798      -0.00002547
H        3.14303645       1.01995683      10.71574105       0.00001576       0.00000348      -0.00003722
H        3.96694312       2.22904731      10.07549291       0.00001798      -0.00002149      -0.00002339
H        5.16363118       0.88841081      11.28373418       0.00001366       0.00002786       0.00002572
H        2.34289164       1.93233857       6.12822858      -0.00000505       0.00005060       0.00001362
H        4.25127003       6.55089054       8.99722064      -0.00002372      -0.00002390       0.00001134
H        5.46036721       5.72697870       8.35700250      -0.00003011      -0.00000016       0.00002696
H        4.11978678       4.53033271       9.56529831      -0.00003098      -0.00005761      -0.00000297
H        6.55091390       4.25127301      11.62503103      -0.00001222      -0.00003068       0.00000952
H        5.72694980       5.46032394      12.26524280       0.00003731      -0.00000928       0.00004404
H        4.53033595       4.11974070      11.05698728      -0.00003133      -0.00002009       0.00001091
H        2.21136866      -0.08824219      12.43429983      -0.00001843       0.00000689      -0.00001363
H        1.00229213       0.73564116      11.79400087       0.00000755       0.00001589       0.00001289
O        0.72454418       2.00231592       8.74094771       0.00001214      -0.00004982      -0.00003208
O        1.22907576       3.95588898      10.45943057      -0.00000142      -0.00003274       0.00004222
O        5.23362601       2.50673824       7.02239828      -0.00001286      -0.00000178      -0.00006899
O        2.50678720       5.23361540      13.59990232       0.00002351      -0.00000862      -0.00002637
O        3.95578102       1.22906293      10.16277640       0.00006505       0.00000893       0.00007220
O        4.46038286       5.73810317       8.44432305      -0.00001136       0.00007221      -0.00006130
O        5.73813786       4.46034055      12.17796329       0.00000958       0.00001222      -0.00000860
O        2.00226785       0.72452066      11.88135815      -0.00001134      -0.00002782      -0.00001499
O        2.56829232       2.56828735       6.87406740       0.00004376      -0.00004346       0.00004322
O        0.66301323       5.79963067       8.59264634       0.00007407      -0.00000360      -0.00001689
O        5.79957956       0.66300696      12.02957053      -0.00001754       0.00001080       0.00002976
O        3.89438525       3.89438109      10.31113804       0.00000051      -0.00001118       0.00000155
H       -0.08823367       8.67402540       1.31392574       0.00004883       0.00000565      -0.00001198
H        0.73570189       7.46498929       1.95420493      -0.00004771      -0.00003918      -0.00001288
H        1.93237800       8.80553847       0.74584346      -0.00003377       0.00006121      -0.00000683
H        1.01997703       9.60575933       3.03242071      -0.00000115       0.00003897       0.00000315
H        2.22905795      10.42967792       3.67266147      -0.00001737       0.00001756       0.00001160
H        0.88841653      11.62632045       2.46439242       0.00001670       0.00005388       0.00000678
H        5.44273426       9.78215382      -0.40461494      -0.00003053       0.00002475      -0.00000173
H        4.23364578       8.95827149       0.23563246       0.00001010      -0.00001649      -0.00002545
H        5.57420599       7.76157595       5.90134818      -0.00002488       0.00000759       0.00001341
H        3.31956573      11.90535074       7.27873649      -0.00002914      -0.00000773       0.00000366
H        2.49565620      10.69628543       6.63847131      -0.00004070       0.00001513       0.00000822
H        1.29894463      12.03689787       0.97270474       0.00003510      -0.00002798      -0.00002547
H        3.14303640       7.48260496       3.84165346       0.00001576       0.00000348      -0.00003722
H        3.96694307       8.69169545       3.20140531       0.00001798      -0.00002149      -0.00002339
H        5.16363112       7.35105894       4.40964659       0.00001366       0.00002786       0.00002572
H        2.34289158       8.39498671      -0.74585901      -0.00000505       0.00005060       0.00001362
H        4.25126997      13.01353867       2.12313305      -0.00002372      -0.00002390       0.00001134
H        5.46036716      12.18962683       1.48291491      -0.00003011      -0.00000016       0.00002696
H        4.11978673      10.99298084       2.69121071      -0.00003098      -0.00005761      -0.00000297
H        6.55091385      10.71392115       4.75094343      -0.00001222      -0.00003068       0.00000952
H        5.72694975      11.92297207       5.39115520       0.00003731      -0.00000928       0.00004404
H        4.53033589      10.58238883       4.18289968      -0.00003133      -0.00002009       0.00001091
H        2.21136861       6.37440594       5.56021224      -0.00001843       0.00000689      -0.00001363
H        1.00229208       7.19828929       4.91991328       0.00000755       0.00001589       0.00001289
O        0.72454413       8.46496405       1.86686012       0.00001214      -0.00004982      -0.00003208
O        1.22907571      10.41853712       3.58534298      -0.00000142      -0.00003274       0.00004222
O        5.23362596       8.96938637       0.14831069      -0.00001286      -0.00000178      -0.00006899
O        2.50678715      11.69626353       6.72581473       0.00002351      -0.00000862      -0.00002637
O        3.95578097       7.69171107       3.28868881       0.00006505       0.00000893       0.00007220
O        4.46038281      12.20075130       1.57023546      -0.00001136       0.00007221      -0.00006130
O        5.73813781      10.92298868       5.30387569       0.00000958       0.00001222      -0.00000860
O        2.00226779       7.18716879       5.00727056      -0.00001134      -0.00002782      -0.00001499
O        2.56829227       9.03093548      -0.00002020       0.00004376      -0.00004346       0.00004322
O        0.66301318      12.26227880       1.71855874       0.00007407      -0.00000360      -0.00001689
O        5.79957951       7.12565509       5.15548293      -0.00001754       0.00001080       0.00002976
O        3.89438520      10.35702922       3.43705044       0.00000051      -0.00001118       0.00000155
H       -0.08823330       8.67402513       8.18801307       0.00004883       0.00000565      -0.00001198
H        0.73570226       7.46498901       8.82829225      -0.00004771      -0.00003918      -0.00001288
H        1.93237837       8.80553819       7.61993078      -0.00003377       0.00006121      -0.00000683
H        1.01997740       9.60575905       9.90650803      -0.00000115       0.00003897       0.00000315
H        2.22905832      10.42967764      10.54674879      -0.00001737       0.00001756       0.00001160
H        0.88841690      11.62632018       9.33847975       0.00001670       0.00005388       0.00000678
H        5.44273463       9.78215354       6.46947238      -0.00003053       0.00002475      -0.00000173
H        4.23364615       8.95827121       7.10971978       0.00001010      -0.00001649      -0.00002545
H        5.57420636       7.76157567      12.77543550      -0.00002488       0.00000759       0.00001341
H        3.31956610      11.90535047      14.15282382      -0.00002914      -0.00000773       0.00000366
H        2.49565657      10.69628515      13.51255863      -0.00004070       0.00001513       0.00000822
H        1.29894500      12.03689759       7.84679207       0.00003510      -0.00002798      -0.00002547
H        3.14303677       7.48260468      10.71574078       0.00001576       0.00000348      -0.00003722
H        3.96694344       8.69169517      10.07549264       0.00001798      -0.00002149      -0.00002339
H        5.16363149       7.35105866      11.28373391       0.00001366       0.00002786       0.00002572
H        2.34289195       8.39498643       6.12822831      -0.00000505       0.00005060       0.00001362
H        4.25127034      13.01353840       8.99722037      -0.00002372      -0.00002390       0.00001134
H        5.46036753      12.18962655       8.35700223      -0.00003011      -0.00000016       0.00002696
H        4.11978710      10.99298056       9.56529804      -0.00003098      -0.00005761      -0.00000297
H        6.55091422      10.71392087      11.62503076      -0.00001222      -0.00003068       0.00000952
H        5.72695012      11.92297179      12.26524253       0.00003731      -0.00000928       0.00004404
H        4.53033626      10.58238855      11.05698701      -0.00003133      -0.00002009       0.00001091
H        2.21136898       6.37440567      12.43429956      -0.00001843       0.00000689      -0.00001363
H        1.00229245       7.19828902      11.79400060       0.00000755       0.00001589       0.00001289
O        0.72454450       8.46496377       8.74094744       0.00001214      -0.00004982      -0.00003208
O        1.22907608      10.41853684      10.45943030      -0.00000142      -0.00003274       0.00004222
O        5.23362633       8.96938610       7.02239801      -0.00001286      -0.00000178      -0.00006899
O        2.50678752      11.69626325      13.59990205       0.00002351      -0.00000862      -0.00002637
O        3.95578134       7.69171079      10.16277613       0.00006505       0.00000893       0.00007220
O        4.46038318      12.20075103       8.44432278      -0.00001136       0.00007221      -0.00006130
O        5.73813818      10.92298840      12.17796302       0.00000958       0.00001222      -0.00000860
O        2.00226816       7.18716851      11.88135788      -0.00001134      -0.00002782      -0.00001499
O        2.56829264       9.03093520       6.87406713       0.00004376      -0.00004346       0.00004322
O        0.66301355      12.26227852       8.59264607       0.00007407      -0.00000360      -0.00001689
O        5.79957988       7.12565481      12.02957026      -0.00001754       0.00001080       0.00002976
O        3.89438557      10.35702894      10.31113777       0.00000051      -0.00001118       0.00000155
H        6.37441522       2.21137786       1.31392642       0.00004883       0.00000565      -0.00001198
H        7.19835079       1.00234175       1.95420560      -0.00004771      -0.00003918      -0.00001288
H        8.39502689       2.34289093       0.74584413      -0.00003377       0.00006121      -0.00000683
H        7.48262592       3.14311179       3.03242138      -0.00000115       0.00003897       0.00000315
H        8.69170684       3.96703038       3.67266214      -0.00001737       0.00001756       0.00001160
H        7.35106542       5.16367291       2.46439309       0.00001670       0.00005388       0.00000678
H       11.90538315       3.31950628      -0.40461427      -0.00003053       0.00002475      -0.00000173
H       10.69629467       2.49562395       0.23563313       0.00001010      -0.00001649      -0.00002545
H       12.03685488       1.29892841       5.90134885      -0.00002488       0.00000759       0.00001341
H        9.78221462       5.44270321       7.27873717      -0.00002914      -0.00000773       0.00000366
H        8.95830509       4.23363789       6.63847198      -0.00004070       0.00001513       0.00000822
H        7.76159352       5.57425033       0.97270541       0.00003510      -0.00002798      -0.00002547
H        9.60568529       1.01995742       3.84165413       0.00001576       0.00000348      -0.00003722
H       10.42959196       2.22904791       3.20140599       0.00001798      -0.00002149      -0.00002339
H       11.62628002       0.88841140       4.40964726       0.00001366       0.00002786       0.00002572
H        8.80554048       1.93233917      -0.74585834      -0.00000505       0.00005060       0.00001362
H       10.71391887       6.55089113       2.12313372      -0.00002372      -0.00002390       0.00001134
H       11.92301605       5.72697929       1.48291558      -0.00003011      -0.00000016       0.00002696
H       10.58243562       4.53033330       2.69121139      -0.00003098      -0.00005761      -0.00000297
H       13.01356275       4.25127361       4.75094411      -0.00001222      -0.00003068       0.00000952
H       12.18959864       5.46032453       5.39115588       0.00003731      -0.00000928       0.00004404
H       10.99298479       4.11974129       4.18290036      -0.00003133      -0.00002009       0.00001091
H        8.67401750      -0.08824159       5.56021291      -0.00001843       0.00000689      -0.00001363
H        7.46494097       0.73564175       4.91991395       0.00000755       0.00001589       0.00001289
O        7.18719302       2.00231651       1.86686079       0.00001214      -0.00004982      -0.00003208
O        7.69172460       3.95588958       3.58534365      -0.00000142      -0.00003274       0.00004222
O       11.69627485       2.50673883       0.14831136      -0.00001286      -0.00000178      -0.00006899
O        8.96943604       5.23361599       6.72581540       0.00002351      -0.00000862      -0.00002637
O       10.41842986       1.22906353       3.28868948       0.00006505       0.00000893       0.00007220
O       10.92303170       5.73810377       1.57023613      -0.00001136       0.00007221      -0.00006130
O       12.20078670       4.46034114       5.30387637       0.00000958       0.00001222      -0.00000860
O        8.46491669       0.72452125       5.00727123      -0.00001134      -0.00002782      -0.00001499
O        9.03094116       2.56828794      -0.00001952       0.00004376      -0.00004346       0.00004322
O        7.12566207       5.79963126       1.71855942       0.00007407      -0.00000360      -0.00001689
O       12.26222840       0.66300755       5.15548360      -0.00001754       0.00001080       0.00002976
O       10.35703409       3.89438168       3.43705112       0.00000051      -0.00001118       0.00000155
H        6.37441559       2.21137759       8.18801374       0.00004883       0.00000565      -0.00001198
H        7.19835116       1.00234147       8.82829293      -0.00004771      -0.00003918      -0.00001288
H        8.39502726       2.34289065       7.61993146      -0.00003377       0.00006121      -0.00000683
H        7.48262629       3.14311151       9.90650871      -0.00000115       0.00003897       0.00000315
H        8.69170721       3.96703010      10.54674947      -0.00001737       0.00001756       0.00001160
H        7.35106579       5.16367264       9.33848042       0.00001670       0.00005388       0.00000678
H       11.90538352       3.31950600       6.46947306      -0.00003053       0.00002475      -0.00000173
H       10.69629504       2.49562367       7.10972046       0.00001010      -0.00001649      -0.00002545
H       12.03685525       1.29892814      12.77543618      -0.00002488       0.00000759       0.00001341
H        9.78221499       5.44270293      14.15282449      -0.00002914      -0.00000773       0.00000366
H        8.95830546       4.23363761      13.51255931      -0.00004070       0.00001513       0.00000822
H        7.76159389       5.57425005       7.84679274       0.00003510      -0.00002798      -0.00002547
H        9.60568566       1.01995715      10.71574146       0.00001576       0.00000348      -0.00003722
H       10.42959233       2.22904763      10.07549331       0.00001798      -0.00002149      -0.00002339
H       11.62628039       0.88841112      11.28373459       0.00001366       0.00002786       0.00002572
H        8.80554085       1.93233889       6.12822899      -0.00000505       0.00005060       0.00001362
H       10.71391924       6.55089086       8.99722105      -0.00002372      -0.00002390       0.00001134
H       11.92301642       5.72697901       8.35700291      -0.00003011      -0.00000016       0.00002696
H       10.58243599       4.53033303       9.56529871      -0.00003098      -0.00005761      -0.00000297
H       13.01356311       4.25127333      11.62503143      -0.00001222      -0.00003068       0.00000952
H       12.18959901       5.46032426      12.26524320       0.00003731      -0.00000928       0.00004404
H       10.99298516       4.11974102      11.05698768      -0.00003133      -0.00002009       0.00001091
H        8.67401787      -0.08824187      12.43430024      -0.00001843       0.00000689      -0.00001363
H        7.46494134       0.73564148      11.79400128       0.00000755       0.00001589       0.00001289
O        7.18719339       2.00231623       8.74094812       0.00001214      -0.00004982      -0.00003208
O        7.69172497       3.95588930      10.45943098      -0.00000142      -0.00003274       0.00004222
O       11.69627522       2.50673856       7.02239869      -0.00001286      -0.00000178      -0.00006899
O        8.96943641       5.23361571      13.59990273       0.00002351      -0.00000862      -0.00002637
O       10.41843023       1.22906325      10.16277681       0.00006505       0.00000893       0.00007220
O       10.92303207       5.73810349       8.44432346      -0.00001136       0.00007221      -0.00006130
O       12.20078707       4.46034086      12.17796369       0.00000958       0.00001222      -0.00000860
O        8.46491706       0.72452097      11.88135856      -0.00001134      -0.00002782      -0.00001499
O        9.03094153       2.56828767       6.87406780       0.00004376      -0.00004346       0.00004322
O        7.12566244       5.79963099       8.59264674       0.00007407      -0.00000360      -0.00001689
O       12.26222877       0.66300727      12.02957093      -0.00001754       0.00001080       0.00002976
O       10.35703446       3.89438140      10.31113844       0.00000051      -0.00001118       0.00000155
H        6.37441554       8.67402572       1.31392615       0.00004883       0.00000565      -0.00001198
H        7.19835110       7.46498961       1.95420533      -0.00004771      -0.00003918      -0.00001288
H        8.39502721       8.80553878       0.74584386      -0.00003377       0.00006121      -0.00000683
H        7.48262624       9.60575964       3.03242111      -0.00000115       0.00003897       0.00000315
H        8.69170716      10.42967823       3.67266187      -0.00001737       0.00001756       0.00001160
H        7.35106574      11.62632077       2.46439282       0.00001670       0.00005388       0.00000678
H       11.90538347       9.78215414      -0.40461454      -0.00003053       0.00002475      -0.00000173
H       10.69629499       8.95827181       0.23563286       0.00001010      -0.00001649      -0.00002545
H       12.03685520       7.76157627       5.90134858      -0.00002488       0.00000759       0.00001341
H        9.78221494      11.90535106       7.27873690      -0.00002914      -0.00000773       0.00000366
H        8.95830541      10.69628574       6.63847171      -0.00004070       0.00001513       0.00000822
H        7.76159384      12.03689819       0.97270514       0.00003510      -0.00002798      -0.00002547
H        9.60568561       7.48260528       3.84165386       0.00001576       0.00000348      -0.00003722
H       10.42959228       8.69169577       3.20140572       0.00001798      -0.00002149      -0.00002339
H       11.62628033       7.35105926       4.40964699       0.00001366       0.00002786       0.00002572
H        8.80554079       8.39498702      -0.74585861      -0.00000505       0.00005060       0.00001362
H       10.71391918      13.01353899       2.12313345      -0.00002372      -0.00002390       0.00001134
H       11.92301637      12.18962715       1.48291531      -0.00003011      -0.00000016       0.00002696
H       10.58243594      10.99298116       2.69121112      -0.00003098      -0.00005761      -0.00000297
H       13.01356306      10.71392147       4.75094384      -0.00001222      -0.00003068       0.00000952
H       12.18959896      11.92297239       5.39115561       0.00003731      -0.00000928       0.00004404
H       10.99298510      10.58238915       4.18290009      -0.00003133      -0.00002009       0.00001091
H        8.67401782       6.37440626       5.56021264      -0.00001843       0.00000689      -0.00001363
H        7.46494129       7.19828961       4.91991368       0.00000755       0.00001589       0.00001289
O        7.18719334       8.46496437       1.86686052       0.00001214      -0.00004982      -0.00003208
O        7.69172492      10.41853743       3.58534338      -0.00000142      -0.00003274       0.00004222
O       11.69627517       8.96938669       0.14831109      -0.00001286      -0.00000178      -0.00006899
O        8.96943636      11.69626385       6.72581513       0.00002351      -0.00000862      -0.00002637
O       10.41843018       7.69171138       3.28868921       0.00006505       0.00000893       0.00007220
O       10.92303202      12.20075162       1.57023586      -0.00001136       0.00007221      -0.00006130
O       12.20078702      10.92298900       5.30387610       0.00000958       0.00001222      -0.00000860
O        8.46491700       7.18716911       5.00727096      -0.00001134      -0.00002782      -0.00001499
O        9.03094148       9.03093580      -0.00001979       0.00004376      -0.00004346       0.00004322
O        7.12566239      12.26227912       1.71855915       0.00007407      -0.00000360      -0.00001689
O       12.26222872       7.12565541       5.15548334      -0.00001754       0.00001080       0.00002976
O       10.35703441      10.35702954       3.43705085       0.00000051      -0.00001118       0.00000155
H        6.37441591       8.67402544       8.18801347       0.00004883       0.00000565      -0.00001198
H        7.19835147       7.46498933       8.82829266      -0.00004771      -0.00003918      -0.00001288
H        8.39502758       8.80553851       7.61993119      -0.00003377       0.00006121      -0.00000683
H        7.48262661       9.60575937       9.90650844      -0.00000115       0.00003897       0.00000315
H        8.69170753      10.42967796      10.54674920      -0.00001737       0.00001756       0.00001160
H        7.35106611      11.62632049       9.33848015       0.00001670       0.00005388       0.00000678
H       11.90538384       9.78215386       6.46947279      -0.00003053       0.00002475      -0.00000173
H       10.69629536       8.95827153       7.10972019       0.00001010      -0.00001649      -0.00002545
H       12.03685557       7.76157599      12.77543591      -0.00002488       0.00000759       0.00001341
H        9.78221531      11.90535078      14.15282422      -0.00002914      -0.00000773       0.00000366
H        8.95830578      10.69628546      13.51255904      -0.00004070       0.00001513       0.00000822
H        7.76159421      12.03689791       7.84679247       0.00003510      -0.00002798      -0.00002547
H        9.60568598       7.48260500      10.71574119       0.00001576       0.00000348      -0.00003722
H       10.42959265       8.69169549      10.07549305       0.00001798      -0.00002149      -0.00002339
H       11.62628070       7.35105898      11.28373432       0.00001366       0.00002786       0.00002572
H        8.80554116       8.39498675       6.12822872      -0.00000505       0.00005060       0.00001362
H       10.71391955      13.01353871       8.99722078      -0.00002372      -0.00002390       0.00001134
H       11.92301674      12.18962687       8.35700264      -0.00003011      -0.00000016       0.00002696
H       10.58243631      10.99298088       9.56529844      -0.00003098      -0.00005761      -0.00000297
H       13.01356343      10.71392119      11.62503116      -0.00001222      -0.00003068       0.00000952
H       12.18959933      11.92297211      12.26524293       0.00003731      -0.00000928       0.00004404
H       10.99298547      10.58238887      11.05698741      -0.00003133      -0.00002009       0.00001091
H        8.67401819       6.37440598      12.43429997      -0.00001843       0.00000689      -0.00001363
H        7.46494166       7.19828933      11.79400101       0.00000755       0.00001589       0.00001289
O        7.18719371       8.46496409       8.74094785       0.00001214      -0.00004982      -0.00003208
O        7.69172529      10.41853715      10.45943071      -0.00000142      -0.00003274       0.00004222
O       11.69627554       8.96938641       7.02239842      -0.00001286      -0.00000178      -0.00006899
O        8.96943673      11.69626357      13.59990246       0.00002351      -0.00000862      -0.00002637
O       10.41843055       7.69171111      10.16277654       0.00006505       0.00000893       0.00007220