36
Lattice="7.12333918 0.0 -3.04115415 -4.60506582 5.43464184 -3.04115415 0.0 0.0 7.74535894" Properties=species:S:1:pos:R:3:forces:R:3 energy=-179.07939738915704 pbc="T T T"
H        6.41497793      10.24331286       8.69565765       0.00003968      -0.00004456      -0.00002410
H        6.60502911      11.31172053       9.80822144       0.00001639       0.00002639       0.00005759
H       12.74708066       7.41859448      12.04116516       0.00001078      -0.00003653      -0.00004592
H       13.06624289       7.30920214      13.59057527       0.00005034      -0.00002333      -0.00001340
H       10.64808075       6.13356661      15.71581283      -0.00002363       0.00005127      -0.00001890
H       11.94311197       6.96927080      15.91563167       0.00000361       0.00001327       0.00001188
H       11.27143621       9.13843577       8.65541670      -0.00003679       0.00000294      -0.00001734
H       12.58263336       9.31122456       7.78053405      -0.00004535       0.00003633      -0.00002716
H       14.79881866       6.70629280       7.55892773       0.00000738      -0.00000947       0.00004890
H       14.90421768       8.23457560       7.29688064       0.00002190       0.00003568      -0.00001189
H        9.04734727       9.12444425      12.06892460       0.00002437      -0.00003164       0.00002871
H        7.96166862      10.23650711      11.75409054      -0.00000722       0.00001173       0.00004693
H       15.71366880       7.06053225      13.20397196      -0.00003818       0.00004755       0.00002671
H       15.52361772       5.99212492      12.09140854      -0.00001643      -0.00002901      -0.00006083
H        9.38156621       9.88525081       9.85846472      -0.00001147       0.00003636       0.00004419
H        9.06240395       9.99464315       8.30905439      -0.00005026       0.00002316       0.00001531
H       11.48056585      11.17027841       6.18381690       0.00002737      -0.00004709       0.00001948
H       10.18553518      10.33457461       5.98399814      -0.00000876      -0.00001541      -0.00001245
H       10.85721077       8.16540960      13.24421296       0.00003451      -0.00000427       0.00001932
H        9.54601328       7.99262074      14.11909581       0.00004832      -0.00003652       0.00002572
H        7.32982812      10.59755208      14.34070202      -0.00000646       0.00001573      -0.00004835
H        7.22442914       9.06927004      14.60274900      -0.00002176      -0.00004145       0.00001411
H       13.08129948       8.17940113       9.83070518      -0.00002305       0.00002984      -0.00002888
H       14.16697830       7.06733807      10.14553928       0.00000568      -0.00001016      -0.00004769
O        5.99037811      10.57748993       9.53719568      -0.00002942       0.00000911       0.00000489
O       12.32085009       7.28885449      12.93569388      -0.00004973       0.00004680       0.00002080
O       11.62991922       6.02567074      15.87232779       0.00003484      -0.00004628      -0.00002411
O       12.16345822       8.72938583       8.46657403       0.00004089      -0.00002801       0.00004041
O       14.66122595       7.38561672       6.83800279      -0.00005128       0.00000142      -0.00002594
O        8.52472069       9.54056080      11.32569220      -0.00000697      -0.00000886      -0.00003958
O       16.13826892       6.72635537      12.36243405       0.00002650      -0.00000981      -0.00000373
O        9.80779666      10.01499072       8.96393591       0.00005113      -0.00004598      -0.00002098
O       10.49872748      11.27817477       6.02730197      -0.00003271       0.00004274       0.00002456
O        9.96518865       8.57445932      13.43305579      -0.00004142       0.00003027      -0.00004104
O        7.46742098       9.91822859      15.06162725       0.00004994      -0.00000202       0.00002164
O       13.60392614       7.76328443      10.57393748       0.00000726       0.00000980       0.00004115
