3
Properties=species:S:1:pos:R:3:forces:R:3 energy=-14.170072284496877 pbc="F F F"
H       -0.00000000      -0.05987045      -0.35503467      -0.00000000       0.00000697       0.00001164
O       -0.00000000       0.71831144       0.22898932       0.00000000      -0.00001537       0.00002161
H        0.00000000       0.34155900       1.12604536      -0.00000000       0.00000840      -0.00003325
