24
Lattice="4.328902551199577 4.590627425435526e-10 5.736903704084326e-10 8.013310186059624e-10 7.521875068527255 5.3807941816461525e-06 9.843789873172098e-10 5.661693823469339e-06 7.059848463967195" Properties=species:S:1:pos:R:3:forces:R:3 energy=-119.8334377348333 stress="3.5508585070720237e-06 1.0496355337265806e-10 -9.74951550634048e-09 1.0496355337265806e-10 -4.034687679981951e-06 5.607472499620732e-08 -9.74951550634048e-09 5.607472499620732e-08 -9.109944234912681e-07" pbc="T T T"
H       -0.00000331       4.01756033       0.12636548       0.00000161      -0.00000287       0.00002118
H       -0.00000356       4.98542092       1.43023568       0.00000250       0.00000004       0.00002429
H       -0.00000328       3.50430774       3.65631307       0.00000151       0.00001766      -0.00001756
H       -0.00000352       2.53644265       4.96017815       0.00000238       0.00000941       0.00000176
H        2.16444967       1.22451217       1.43023618      -0.00000172      -0.00004056       0.00001247
H        2.16444949       0.25662703       0.12638106      -0.00000111       0.00001037       0.00000904
H        2.16444963       6.29740526       4.96017232      -0.00000166      -0.00003202       0.00002132
H        2.16444951       7.26525614       3.65630069      -0.00000115       0.00001951      -0.00002066
H        1.35403068       5.74549112       6.94651796      -0.00003461       0.00001211       0.00000331
H        2.97486711       5.74549212       6.94651689       0.00003221       0.00000818       0.00000710
H        1.35402775       1.77639203       3.41658712       0.00000581       0.00002271      -0.00000317
H        2.97486997       1.77639111       3.41658613      -0.00000814       0.00002647       0.00000047
H        0.81041719       1.98455511       6.94651040       0.00003752      -0.00000585       0.00000450
H        3.51848096       1.98455642       6.94650911      -0.00003682      -0.00001111       0.00000936
H        0.81041715       5.53732812       3.41658486      -0.00000171       0.00000804       0.00001629
H        3.51848100       5.53732679       3.41658359       0.00000241       0.00001329       0.00002119
O       -0.00000362       4.98335533       0.42170971       0.00000259       0.00002977      -0.00000744
O       -0.00000363       2.53851229       3.95165045       0.00000270      -0.00001225      -0.00002991
O        2.16444966       1.22242750       0.42170903      -0.00000104       0.00003559      -0.00001330
O        2.16444966       6.29946312       3.95164631      -0.00000106      -0.00001258      -0.00001678
O        2.16444833       6.24449318       6.61035966       0.00000087      -0.00001294      -0.00004340
O        2.16444834       1.27740815       3.08040759       0.00000083      -0.00004554       0.00002010
O        4.32890095       2.48355082       6.61034430      -0.00000196      -0.00001541      -0.00000777
O        4.32890095       5.03833305       3.08041915      -0.00000196      -0.00002203      -0.00001241
