3
Properties=species:S:1:pos:R:3:forces:R:3 energy=-14.159421576891772 stress="inf -inf -inf -inf inf inf -inf inf -inf" free_energy=-14.159421576891772 pbc="F F F"
H       -0.00000000      -0.05340760      -0.36041420      -0.00000000       0.00005398       0.00004035
O       -0.00000000       0.71741328       0.23282284       0.00000000      -0.00004189      -0.00007114
H        0.00000000       0.33599432       1.12759136       0.00000000      -0.00001209       0.00003079
