36
Lattice="7.485530151554026 -2.041413134610425e-05 4.626229679118141e-06 3.742746909294883 6.482627756236994 9.04753261952159e-06 4.30806385415751e-06 7.235883810131989e-06 7.106761196680006" Properties=species:S:1:pos:R:3:forces:R:3 energy=-179.69769561333786 stress="-3.657000583758528e-07 -3.6665481078298396e-07 6.270504079415884e-08 -3.6665481078298396e-07 -8.145368163826015e-07 1.0264519946630394e-07 6.270504079415884e-08 1.0264519946630394e-07 -2.1145982208314873e-08" pbc="T T T"
H        1.25672202       2.17678996       1.44496457       0.00001288       0.00002226      -0.00001905
H        4.97177554      -0.00008220       1.44495038      -0.00005956      -0.00002842       0.00003577
H        4.99948359       4.30566266       1.44495490       0.00000604      -0.00006408       0.00003646
H        6.25639137       6.48261473       4.99835312      -0.00002218      -0.00001956       0.00000630
H        9.97136917       4.30567948       4.99833617       0.00003305       0.00005823       0.00006948
H        6.22862425       2.17690395       4.99834849      -0.00000709      -0.00003017       0.00000748
H        4.02588180      -0.00015915       0.12415719      -0.00001872       0.00000120       0.00002825
H        1.72960979       2.99586058       0.12411336       0.00001213       0.00002143       0.00002068
H        5.47236978       3.48645924       0.12416196       0.00001272      -0.00001406       0.00002797
H        7.20226168       6.48267527       3.67754955       0.00001606       0.00000795      -0.00001474
H        9.49849536       3.48663322       3.67747941      -0.00002370      -0.00004126      -0.00002859
H        5.75573532       2.99607888       3.67754520      -0.00000274       0.00001655      -0.00001473
H        5.75340298       5.67001099       6.99952425       0.00000504      -0.00000512      -0.00003564
H        5.75340208       7.29495128       6.99956203       0.00000478       0.00002722       0.00000710
H        9.51912693       5.14730752       6.99956306      -0.00002062       0.00003578      -0.00001744
H        7.18362303       2.14746668       6.99955888       0.00001854       0.00001761       0.00000627
H        5.77638120       1.33500033       6.99951763      -0.00000847      -0.00000023      -0.00003284
H        1.70899035       1.33519449       3.44617381      -0.00000872      -0.00002372       0.00001186
H        9.21749164       7.29514045       3.44614889      -0.00003314      -0.00000550       0.00001024
H        9.21747576       5.67019211       3.44618812       0.00001204       0.00001678      -0.00001952
H        4.04448844       4.33506040       3.44618496       0.00001080       0.00001900      -0.00002072
H        5.45172884       5.14754537       3.44614211       0.00001327      -0.00002973       0.00001347
H        0.30174225       2.14767172       3.44617195      -0.00001802      -0.00001966       0.00001314
H       10.92636393       4.33483652       6.99956108       0.00004361       0.00000072      -0.00001521
O        1.24909230       2.16357471       0.43669074      -0.00001498      -0.00002069      -0.00002790
O        4.98693915      -0.00016292       0.43667789       0.00001488       0.00004332       0.00001260
O        4.99183359       4.31875510       0.43668245       0.00003150       0.00003523       0.00001289
O        6.24120817       6.48267843       3.99007977      -0.00000624      -0.00000138      -0.00000908
O        6.23626916       2.16378608       3.99007520      -0.00000015      -0.00000724      -0.00000839
O        6.23898397       6.48248955       6.64906043       0.00004477       0.00001532       0.00001509
O        6.23721996       2.16176465       6.64905605      -0.00001125       0.00004295       0.00001309
O        1.24814170       2.16193061       3.09565838      -0.00000313      -0.00000288       0.00000331
O        8.73191247       6.48266295       3.09568151      -0.00003463      -0.00000003      -0.00004151
O        4.99089007       4.32078311       3.09567704       0.00001953      -0.00002682      -0.00004297
O        9.97901083       4.31891559       3.99006585      -0.00001337      -0.00002913       0.00002289
O        9.97996364       4.32056355       6.64905281      -0.00000497      -0.00001188      -0.00002603
