3
Properties=species:S:1:pos:R:3:forces:R:3 energy=-14.27604566404083 stress="inf inf inf inf inf inf inf inf inf" free_energy=-14.27604566404083 pbc="F F F"
H        0.00000000      -0.06510415      -0.34818008       0.00000000       0.00188948       0.00139872
O        0.00000000       0.71675068       0.22557525      -0.00000000      -0.00166573      -0.00191775
H       -0.00000000       0.34835347       1.12260484      -0.00000000      -0.00022375       0.00051903
