36
Lattice="10.029055556619804 -6.738585724774608e-07 -1.5613751469586834e-06 -4.497616256167803e-07 6.686034746243979 7.741983882405711e-07 -3.8321338122097664e-07 2.92184279186697e-07 3.2124291782722416" Properties=species:S:1:pos:R:3:forces:R:3 energy=-178.18518890706454 stress="-4.790362775983908e-07 -7.848922822691841e-07 -6.530118346929683e-07 -7.848922822691841e-07 -5.24863046772947e-07 4.0560170068607536e-07 -6.530118346929683e-07 4.0560170068607536e-07 2.6703930936563397e-06" pbc="T T T"
H        0.55848310       0.55848902       0.56436003       0.00004132       0.00001632      -0.00001714
H        3.90150162       0.55848880       0.56435951       0.00004132       0.00001632      -0.00001714
H        7.24452014       0.55848857       0.56435898       0.00004132       0.00001632      -0.00001714
H        0.55848288       3.90150640       0.56436041       0.00004132       0.00001632      -0.00001714
H        3.90150140       3.90150617       0.56435989       0.00004132       0.00001632      -0.00001714
H        7.24451992       3.90150595       0.56435937       0.00004132       0.00001632      -0.00001714
H        2.78452765       2.78453657       0.56436200      -0.00001259      -0.00004415      -0.00002090
H        6.12754617       2.78453635       0.56436148      -0.00001259      -0.00004415      -0.00002090
H        9.47056469       2.78453612       0.56436096      -0.00001259      -0.00004415      -0.00002090
H        2.78452743       6.12755394       0.56436238      -0.00001259      -0.00004415      -0.00002090
H        6.12754595       6.12755372       0.56436186      -0.00001259      -0.00004415      -0.00002090
H        9.47056446       6.12755349       0.56436134      -0.00001259      -0.00004415      -0.00002090
H        2.22999754       1.11302015       2.17055923      -0.00000405       0.00000832       0.00003200
H        5.57301606       1.11301992       2.17055871      -0.00000405       0.00000832       0.00003200
H        8.91603458       1.11301970       2.17055819      -0.00000405       0.00000832       0.00003200
H        2.22999732       4.45603752       2.17055962      -0.00000405       0.00000832       0.00003200
H        5.57301584       4.45603729       2.17055910      -0.00000405       0.00000832       0.00003200
H        8.91603436       4.45603707       2.17055858      -0.00000405       0.00000832       0.00003200
H        1.11302056       2.22999344       2.17056882       0.00001090      -0.00000212       0.00001658
H        4.45603908       2.22999322       2.17056830       0.00001090      -0.00000212       0.00001658
H        7.79905760       2.22999299       2.17056778       0.00001090      -0.00000212       0.00001658
H        1.11302034       5.57301082       2.17056921       0.00001090      -0.00000212       0.00001658
H        4.45603886       5.57301059       2.17056869       0.00001090      -0.00000212       0.00001658
H        7.79905738       5.57301037       2.17056817       0.00001090      -0.00000212       0.00001658
O       10.02906179      -0.00000744       3.17594719      -0.00003097       0.00003114      -0.00000302
O        3.34302475      -0.00000700       3.17594823      -0.00003097       0.00003114      -0.00000302
O        6.68604327      -0.00000722       3.17594771      -0.00003097       0.00003114      -0.00000302
O       10.02906156       3.34300993       3.17594758      -0.00003097       0.00003114      -0.00000302
O        3.34302453       3.34301038       3.17594862      -0.00003097       0.00003114      -0.00000302
O        6.68604304       3.34301015       3.17594810      -0.00003097       0.00003114      -0.00000302
O        1.67150942       1.67151139       1.56972562      -0.00000461      -0.00000951      -0.00000752
O        5.01452794       1.67151116       1.56972510      -0.00000461      -0.00000951      -0.00000752
O        8.35754646       1.67151094       1.56972458      -0.00000461      -0.00000951      -0.00000752
O        1.67150920       5.01452876       1.56972601      -0.00000461      -0.00000951      -0.00000752
O        5.01452772       5.01452854       1.56972549      -0.00000461      -0.00000951      -0.00000752
O        8.35754624       5.01452831       1.56972497      -0.00000461      -0.00000951      -0.00000752
