36
Lattice="7.678093 0.0 0.0 3.839046 6.649423 0.0 0.0 0.0 7.234567" Properties=species:S:1:pos:R:3:masses:R:1:forces:R:3 energy=-178.5785618555188 stress="-0.002505973424026869 -2.5207452101217295e-09 -8.485270992493155e-12 -2.5207452101217295e-09 -0.0025059794310591686 -1.465260545136999e-11 -8.485270992493155e-12 -1.465260545136999e-11 -0.0028000801954902897" free_energy=-178.5785618555188 pbc="T T T"
H        1.28785868       2.23073137       1.44455629       2.01410178      -0.00000000      -0.00000001       0.00000000
H        5.10212657      -0.00004899       1.44455639       2.01410178       0.00000001       0.00000000      -0.00000000
H        5.12690501       4.41859365       1.44455636       2.01410178      -0.00000000       0.00000001      -0.00000000
H        6.41484665       6.64937410       5.06183987       2.01410178       0.00000001      -0.00000000       0.00000000
H       10.22911462       4.41859377       5.06183981       2.01410178      -0.00000000      -0.00000000      -0.00000000
H        6.39006830       2.23073141       5.06183985       2.01410178      -0.00000001       0.00000000       0.00000000
H        4.18191487      -0.00004899       0.14403720       2.01410178       0.00000000       0.00000000      -0.00000000
H        1.74796453       3.02765811       0.14403712       2.01410178      -0.00000000      -0.00000001       0.00000000
H        5.58701095       3.62166698       0.14403718       2.01410178      -0.00000000       0.00000000      -0.00000000
H        7.33505838       6.64937409       3.76132070       2.01410178       0.00000001      -0.00000000      -0.00000000
H        9.76900877       3.62166702       3.76132065       2.01410178      -0.00000000      -0.00000000      -0.00000000
H        5.92996235       3.02765810       3.76132068       2.01410178      -0.00000001       0.00000000      -0.00000000
H        5.92405925       5.85146244       7.12309902       2.01410178       0.00000001      -0.00000000       0.00000000
H        5.92405917       7.44728567       7.12309901       2.01410178       0.00000000      -0.00000000       0.00000000
H        9.78349652       5.24258392       7.12309902       2.01410178      -0.00000000      -0.00000000      -0.00000000
H        7.32647371       2.20465286       7.12309900       2.01410178      -0.00000000       0.00000000       0.00000000
H        5.94445026       1.40674121       7.12309902       2.01410178      -0.00000000       0.00000000       0.00000000
H        1.73347677       1.40674122       3.50581549       2.01410178      -0.00000000      -0.00000000       0.00000001
H        9.43196001       7.44728566       3.50581553       2.01410178       0.00000000       0.00000000      -0.00000000
H        9.43196008       5.85146244       3.50581553       2.01410178       0.00000001       0.00000000      -0.00000000
H        4.19049959       4.44467222       3.50581552       2.01410178      -0.00000000       0.00000001      -0.00000000
H        5.57252303       5.24258387       3.50581553       2.01410178       0.00000000       0.00000000      -0.00000000
H        0.35145325       2.20465279       3.50581548       2.01410178      -0.00000000      -0.00000000       0.00000001
H       11.16552005       4.44467234       7.12309902       2.01410178      -0.00000000      -0.00000000      -0.00000000
O        1.27258730       2.20428058       0.44762032      15.99900000      -0.00000000      -0.00000000       0.00000000
O        5.13266933      -0.00004900       0.44762042      15.99900000       0.00000001       0.00000000      -0.00000000
O        5.11163362       4.44504444       0.44762040      15.99900000      -0.00000000       0.00000001      -0.00000000
O        6.38430391       6.64937411       4.06490390      15.99900000       0.00000001      -0.00000000       0.00000000
O        6.40533969       2.20428063       4.06490388      15.99900000      -0.00000001       0.00000000       0.00000000
O        6.41414561       6.64937408       6.77888817      15.99900000       0.00000001      -0.00000000       0.00000000
O        6.39041879       2.23012428       6.77888815      15.99900000      -0.00000000       0.00000000       0.00000000
O        1.28750816       2.23012423       3.16160459      15.99900000      -0.00000000      -0.00000001       0.00000001
O        8.94187363       6.64937402       3.16160469      15.99900000       0.00000001       0.00000000      -0.00000000
O        5.12655451       4.41920079       3.16160467      15.99900000      -0.00000000       0.00000000      -0.00000000
O       10.24438600       4.44504455       4.06490385      15.99900000      -0.00000000      -0.00000000      -0.00000000
O       10.22946514       4.41920091       6.77888812      15.99900000      -0.00000000      -0.00000000      -0.00000000
